LAMMPS (30 Mar 2026)
OMP_NUM_THREADS environment is not set. Defaulting to 1 thread.
  using 1 OpenMP thread(s) per MPI task

# ------------------ Initialization ------------------
units           metal
boundary        p p p
atom_style      atomic

# ------------------ Geometry Generation -------------
# Silicon diamond cubic lattice constant is 5.431 Angstroms

variable pwd_path getenv PWD

variable structure_file string ../structures/si_structure.txt

read_data ../structures/si_structure.txt
Reading data file ...
  orthogonal box = (0 0 0) to (16.29 16.29 16.29)
  1 by 1 by 1 MPI processor grid
  reading atoms ...
  216 atoms
  read_data CPU = 0.001 seconds

# ------------------ Interatomic Potential -----------
# Using the standard Stillinger-Weber (SW) potential
pair_style      sw
pair_coeff      * * ../potentials/Si.sw Si
Reading sw potential file ../potentials/Si.sw with DATE: 2007-06-11


# ------------------ Compute -----------------
compute eng all pe/atom 	# a variable named 'eng' is defined to store the potential energy for each atom
compute eatoms all reduce sum c_eng  #a variable named 'eatoms' is defined to store the sum of all 'eng' values
compute new all temp


# ------------------ Energy Minimization -------------
# Relax the structure to remove any initial overlapping/strain
thermo          10
thermo_style    custom step temp pe press vol

minimize 1.0e-6 1.0e-6 5000 10000
Neighbor list info ...
  update: every = 1 steps, delay = 0 steps, check = yes
  max neighbors/atom: 2000, page size: 100000
  master list distance cutoff = 5.77118
  ghost atom cutoff = 5.77118
  binsize = 2.88559, bins = 6 6 6
  1 neighbor lists, perpetual/occasional/extra = 1 0 0
  (1) pair sw, perpetual
      attributes: full, newton on
      pair build: full/bin/atomonly
      stencil: full/bin/3d
      bin: standard
Per MPI rank memory allocation (min/avg/max) = 4.343 | 4.343 | 4.343 Mbytes
   Step          Temp          PotEng         Press          Volume    
         0   0             -936.70522      532.56802      4322.7812    
         1   0             -936.70522      532.56802      4322.7812    
Loop time of 0.000368689 on 1 procs for 1 steps with 216 atoms

74.3% CPU use with 1 MPI tasks x 1 OpenMP threads

Minimization stats:
  Stopping criterion = quadratic factors are zero
  Energy initial, next-to-last, final = 
     -936.705223045316  -936.705223045316  -936.705223045316
  Force two-norm initial, final = 1.1685261e-17 1.1685261e-17
  Force max component initial, final = 8.6736205e-19 8.6736205e-19
  Final line search alpha, max atom move = 1 8.6736205e-19
  Iterations, force evaluations = 1 2

MPI task timing breakdown:
Section |  min time  |  avg time  |  max time  |%varavg| %total
---------------------------------------------------------------
Pair    | 0.00034407 | 0.00034407 | 0.00034407 |   0.0 | 93.32
Neigh   | 0          | 0          | 0          |   0.0 |  0.00
Comm    | 9.328e-06  | 9.328e-06  | 9.328e-06  |   0.0 |  2.53
Output  | 0          | 0          | 0          |   0.0 |  0.00
Modify  | 0          | 0          | 0          |   0.0 |  0.00
Other   |            | 1.529e-05  |            |       |  4.15

Nlocal:            216 ave         216 max         216 min
Histogram: 1 0 0 0 0 0 0 0 0 0
Nghost:            950 ave         950 max         950 min
Histogram: 1 0 0 0 0 0 0 0 0 0
Neighs:              0 ave           0 max           0 min
Histogram: 1 0 0 0 0 0 0 0 0 0
FullNghs:         7344 ave        7344 max        7344 min
Histogram: 1 0 0 0 0 0 0 0 0 0

Total # of neighbors = 7344
Ave neighs/atom = 34
Neighbor list builds = 0
Dangerous builds = 0

# ------------------ Equilibration (NVT/NPT) ---------
reset_timestep  0
velocity all create ${temperature} 87287 loop geom
velocity all create 400 87287 loop geom

# Reference timestep for metal units with Silicon is typically 1-2 fs
timestep        0.001


# Tdamp - 100*Timestep
# Pdamp - 1000*Timestep
#
# Run NPT to fix temperature at 300K and pressure at 0 Bar
fix 1 all npt temp ${temperature} ${temperature} 0.1 iso ${pressure} ${pressure} 1.0
fix 1 all npt temp 400 ${temperature} 0.1 iso ${pressure} ${pressure} 1.0
fix 1 all npt temp 400 400 0.1 iso ${pressure} ${pressure} 1.0
fix 1 all npt temp 400 400 0.1 iso 0.0 ${pressure} 1.0
fix 1 all npt temp 400 400 0.1 iso 0.0 0.0 1.0

# Output settings

variable dump_path string "../results/lattice_parameter/si_out_${temperature}.dat"
../results/lattice_parameter/si_out_400.dat

dump 1 all custom 5000 ${dump_path} mass type xs ys zs
dump 1 all custom 5000 ../results/lattice_parameter/si_out_400.dat mass type xs ys zs

dump_modify 1 sort id

variable first_run_step equal ${steps}
variable first_run_step equal 50000

# Run the simulation
run ${first_run_step}
run 50000
Per MPI rank memory allocation (min/avg/max) = 3.218 | 3.218 | 3.218 Mbytes
   Step          Temp          PotEng         Press          Volume    
         0   400           -936.70522      3279.3168      4322.7812    
        10   216.31912     -931.58388      3509.2687      4323.565     
        20   125.85292     -929.03737      2687.7881      4325.9497    
        30   245.87681     -932.26658      867.46655      4329.5538    
        40   154.93642     -929.55894      34.311594      4333.6198    
        50   118.12511     -928.42497     -724.78966      4337.7105    
        60   257.21948     -932.11477     -1857.6586      4341.4457    
        70   201.64063     -930.36949     -2003.3302      4344.3578    
        80   177.49942     -929.5703      -2074.5274      4346.3302    
        90   283.4306      -932.34039     -2524.0969      4347.3055    
       100   219.93616     -930.37047     -2223.864       4347.1269    
       110   191.79764     -929.43056     -1928.4098      4345.8971    
       120   271.84845     -931.44334     -1818.5901      4343.7463    
       130   210.2478      -929.49405     -801.74303      4340.7817    
       140   199.49055     -929.00818      193.50507      4337.4391    
       150   298.0093      -931.49371      660.0993       4334.1644    
       160   249.52474     -929.8654       1621.9523      4331.228     
       170   222.90353     -928.90723      2447.6838      4329.0501    
       180   307.98394     -931.00982      2542.1933      4327.9896    
       190   265.58442     -929.54456      2733.1007      4328.1335    
       200   226.55673     -928.23519      2516.9725      4329.5487    
       210   303.94498     -930.12873      1428.0764      4332.1138    
       220   285.43195     -929.31643      591.68722      4335.3742    
       230   231.75108     -927.58016     -13.121212      4338.9364    
       240   274.54005     -928.51824     -1004.2141      4342.4853    
       250   273.02136     -928.18732     -1613.9267      4345.5897    
       260   248.77403     -927.24891     -1698.1457      4347.9646    
       270   318.62763     -928.90586     -1907.0463      4349.5367    
       280   356.98134     -929.63404     -1960.3262      4350.219     
       290   293.44912     -927.57148     -1616.2275      4349.9973    
       300   313.40355     -927.8618      -1544.3694      4348.9988    
       310   351.75588     -928.62453     -1361.5251      4347.276     
       320   311.34555     -927.20982     -756.6145       4344.9294    
       330   306.84578     -926.81935     -220.00224      4342.2197    
       340   332.69611     -927.25016      504.72694      4339.4127    
       350   320.24523     -926.61019      1602.7124      4336.861     
       360   375.43769     -927.84451      2188.4778      4335.0412    
       370   427.51935     -928.96047      2270.5344      4334.232     
       380   344.78752     -926.37623      2404.1832      4334.5018    
       390   312.48529     -925.25135      2002.9033      4335.8874    
       400   369.1862      -926.56878      1125.9862      4338.207     
       410   361.22213     -926.06617      460.88355      4341.0839    
       420   348.45093     -925.4487      -261.8512       4344.1924    
       430   366.08166     -925.67047     -995.56226      4347.1925    
       440   349.5268      -924.94067     -1215.3238      4349.7627    
       450   403.21354     -926.16141     -1535.7615      4351.7651    
       460   434.78642     -926.748       -1791.2971      4353.0543    
       470   355.02578     -924.28792     -1502.6836      4353.5277    
       480   392.89243     -925.12247     -1260.5869      4353.29      
       490   476.36233     -927.19036     -1040.7113      4352.4558    
       500   416.57378     -925.31051     -519.01892      4351.1469    
       510   436.01453     -925.67998     -493.98158      4349.5696    
       520   484.64148     -926.87048     -588.93011      4347.7514    
       530   339.2005      -922.71174      97.624143      4345.6903    
       540   336.40229     -922.53272      527.87781      4343.659     
       550   489.84128     -926.64467      649.86616      4341.8582    
       560   408.22247     -924.23348      1555.0513      4340.4012    
       570   351.64286     -922.55932      2059.9374      4339.6619    
       580   517.5424      -927.04962      1480.9502      4339.8484    
       590   455.1265      -925.22308      1496.0936      4340.7741    
       600   326.62649     -921.60774      1595.18        4342.4246    
       610   460.53491     -925.27515      609.74039      4344.795     
       620   486.65217     -925.95124     -123.43967      4347.4898    
       630   380.03371     -922.9803      -362.07845      4350.1736    
       640   443.28725     -924.74166     -1104.8363      4352.6815    
       650   467.14619     -925.42783     -1624.6652      4354.6984    
       660   406.56182     -923.79595     -1823.4627      4355.9745    
       670   442.00564     -924.84998     -1957.5715      4356.3963    
       680   449.43091     -925.15262     -1637.5529      4355.9151    
       690   449.15128     -925.26798     -1372.1141      4354.6553    
       700   479.75845     -926.29341     -1511.2532      4352.72      
       710   341.65394     -922.63399     -965.67107      4350.0934    
       720   313.50018     -921.95936     -305.65685      4347.0003    
       730   477.2861      -926.62408      68.424321      4343.7315    
       740   435.60886     -925.62174      1244.1482      4340.5181    
       750   336.76928     -923.00367      2458.9294      4337.8815    
       760   463.72157     -926.65796      2593.9769      4336.3456    
       770   494.9352      -927.71773      2662.0788      4336.0316    
       780   376.13268     -924.62029      2749.7703      4336.985     
       790   385.91304     -925.06734      1802.597       4339.2051    
       800   393.26005     -925.44138      612.59075      4342.2962    
       810   364.62469     -924.7891      -307.85894      4345.7238    
       820   409.75278     -926.17859     -1186.4287      4349.0406    
       830   385.2498      -925.63151     -1676.7213      4351.847     
       840   347.61266     -924.69453     -2010.5815      4353.892     
       850   379.97021     -925.68276     -2341.2547      4355.0003    
       860   393.22521     -926.13459     -2226.5094      4355.027     
       870   385.0279      -925.98395     -1849.6738      4354.0092    
       880   405.34827     -926.62576     -1510.007       4352.1021    
       890   381.24252     -926.02931     -723.48938      4349.4858    
       900   381.26856     -926.09123      161.22939      4346.5115    
       910   426.48009     -927.40708      640.58573      4343.5749    
       920   419.36315     -927.28257      1020.4755      4340.9184    
       930   369.81221     -925.97973      1373.937       4338.727     
       940   343.71985     -925.31128      1366.442       4337.1548    
       950   310.70267     -924.41777      1329.0575      4336.2189    
       960   323.02262     -924.74836      1411.389       4335.911     
       970   370.65585     -926.02384      1593.2692      4336.2769    
       980   394.67291     -926.62082      1782.7212      4337.4062    
       990   380.17599     -926.14011      1783.7558      4339.3933    
      1000   411.47657     -926.92742      1077.0839      4342.225     
      1010   412.32901     -926.86391      48.535352      4345.597     
      1020   369.22033     -925.58479     -929.62114      4349.0436    
      1030   384.80225     -925.92858     -1864.9253      4352.0966    
      1040   411.24514     -926.56008     -2303.7015      4354.3246    
      1050   363.00414     -925.1172      -2125.2407      4355.513     
      1060   381.44092     -925.52468     -2015.5848      4355.7022    
      1070   449.93964     -927.30468     -2063.4555      4354.9271    
      1080   378.17234     -925.2         -1589.4857      4353.1877    
      1090   352.69853     -924.39598     -1136.6018      4350.6714    
      1100   430.96622     -926.45117     -828.26791      4347.5785    
      1110   382.53329     -924.97937      62.726655      4344.084     
      1120   325.82987     -923.29063      1163.6022      4340.5899    
      1130   431.15848     -926.07475      1767.5507      4337.5828    
      1140   458.37967     -926.66803      2379.4135      4335.3825    
      1150   389.58875     -924.63531      2797.3906      4334.2784    
      1160   360.93642     -923.73699      2693.8821      4334.4678    
      1170   391.07811     -924.45848      2364.1624      4335.9328    
      1180   447.20089     -925.88767      2037.0364      4338.5492    
      1190   470.21294     -926.41347      1514.2842      4342.1728    
      1200   432.8412      -925.30057      560.55892      4346.5674    
      1210   438.57516     -925.41468     -900.55939      4351.2852    
      1220   385.05598     -923.89347     -2006.2973      4355.6756    
      1230   361.67887     -923.20604     -2831.0561      4359.1967    
      1240   460.93932     -925.91545     -3561.9353      4361.4253    
      1250   470.22615     -926.14853     -3540.4052      4362.0201    
      1260   387.59864     -923.86303     -2888.8705      4360.9583    
      1270   447.6009      -925.55457     -2372.9169      4358.4891    
      1280   470.34038     -926.24154     -1616.0722      4354.8596    
      1290   362.76838     -923.32407     -579.7052       4350.418     
      1300   376.68048     -923.76907      25.765443      4345.6111    
      1310   396.9887      -924.38025      784.7763       4340.752     
      1320   380.55519     -923.96114      1800.2563      4336.2019    
      1330   408.11089     -924.76053      2820.3936      4332.4348    
      1340   399.39377     -924.55294      3818.9769      4329.9451    
      1350   418.85215     -925.13269      4269.1699      4329.2043    
      1360   488.1832      -927.13375      3950.7995      4330.4427    
      1370   413.65425     -925.17792      3726.987       4333.5955    
      1380   409.04023     -925.16798      2668.211       4338.5516    
      1390   516.08074     -928.30186      576.43902      4344.8391    
      1400   412.10028     -925.61617     -1021.2136      4351.5647    
      1410   308.73737     -922.88056     -2490.1063      4357.9532    
      1420   444.2162      -926.76503     -4513.7118      4363.2526    
      1430   408.76392     -925.92522     -5366.0359      4366.5472    
      1440   283.08441     -922.53448     -5223.699       4367.3693    
      1450   371.4603      -925.0608      -5174.8997      4365.6842    
      1460   418.62182     -926.44194     -4291.0373      4361.5155    
      1470   347.42593     -924.52624     -2340.4499      4355.2577    
      1480   383.32993     -925.56334     -433.49119      4347.7609    
      1490   422.79724     -926.68543      1462.593       4339.9258    
      1500   391.07676     -925.82359      3312.0636      4332.6506    
      1510   421.95249     -926.70404      4361.6833      4326.7814    
      1520   402.48158     -926.19744      5133.7173      4322.8619    
      1530   327.68628     -924.14774      5732.8243      4321.2928    
      1540   389.35302     -925.87636      5437.9443      4322.3671    
      1550   470.95669     -928.16618      4541.8635      4326.0152    
      1560   406.10976     -926.41578      3620.3915      4331.9048    
      1570   385.16624     -925.89176      1774.2119      4339.61      
      1580   401.80826     -926.39973     -623.27547      4348.3177    
      1590   365.35122     -925.41444     -2757.1892      4356.9416    
      1600   347.39305     -924.91791     -4826.9797      4364.4381    
      1610   365.80518     -925.40906     -6532.2426      4369.7886    
      1620   343.74888     -924.76235     -6981.2886      4372.1559    
      1630   319.8092      -924.05107     -6400.816       4371.2444    
      1640   364.4504      -925.22012     -5308.0212      4367.2461    
      1650   398.03774     -926.04788     -3431.8869      4360.6517    
      1660   419.39136     -926.51689     -1045.1136      4352.3131    
      1670   448.61262     -927.19609      1269.6158      4343.3249    
      1680   457.13807     -927.31112      3320.4152      4334.7776    
      1690   444.18035     -926.85875      4790.3639      4327.6384    
      1700   418.98906     -926.09871      5341.2568      4322.6046    
      1710   355.59652     -924.29528      5417.596       4319.9876    
      1720   312.12761     -923.03847      5326.7505      4319.8776    
      1730   364.53759     -924.41966      4767.2372      4322.2628    
      1740   392.07935     -925.07714      4192.0828      4326.9567    
      1750   397.76879     -925.12038      3413.5828      4333.7336    
      1760   484.38154     -927.40542      1527.2397      4342.2344    
      1770   508.31623     -927.97119     -887.62767      4351.63      
      1780   371.33077     -924.1135      -2995.9266      4360.8228    
      1790   350.94577     -923.49501     -5387.4848      4368.7544    
      1800   406.05413     -924.95037     -7326.3051      4374.2665    
      1810   320.62776     -922.49931     -7479.2117      4376.4261    
      1820   339.06858     -922.9343      -6618.3942      4375.0526    
      1830   512.11275     -927.62945     -5438.5966      4370.4688    
      1840   484.40097     -926.77215     -3275.9145      4363.2378    
      1850   390.4528      -924.12997     -980.54107      4354.3288    
      1860   457.69815     -925.97298      731.3704       4344.7904    
      1870   448.17174     -925.69311      2752.0347      4335.48      
      1880   380.68496     -923.8152       4617.9308      4327.3354    
      1890   415.78678     -924.79046      5722.6412      4321.2236    
      1900   411.36993     -924.67724      6491.9451      4317.7086    
      1910   406.53435     -924.57075      6806.372       4317.1815    
      1920   439.56657     -925.54554      6240.6649      4319.8166    
      1930   395.56339     -924.40428      5090.4709      4325.4253    
      1940   415.0195      -925.03798      3081.9489      4333.5091    
      1950   448.29103     -926.07901      728.7898       4343.1926    
      1960   374.99148     -924.16898     -1443.1324      4353.4123    
      1970   397.32673     -924.91009     -3877.5371      4363.1116    
      1980   433.56625     -926.07663     -6069.0059      4371.1239    
      1990   318.56021     -923.04386     -7062.2664      4376.3984    
      2000   358.5403      -924.2969      -7584.0195      4378.3624    
      2010   475.94039     -927.77282     -7449.04        4376.7196    
      2020   378.55391     -925.32522     -5822.0414      4371.5319    
      2030   350.14967     -924.74225     -3654.3871      4363.5027    
      2040   455.38036     -927.87303     -1478.8459      4353.6318    
      2050   434.61435     -927.50754      978.20528      4342.9685    
      2060   399.27785     -926.69516      3048.2204      4332.6479    
      2070   392.64009     -926.64126      4596.133       4323.6467    
      2080   319.90536     -924.69494      5970.1808      4316.7184    
      2090   308.48983     -924.40177      6725.061       4312.4957    
      2100   327.15316     -924.91446      7090.3976      4311.3659    
      2110   332.67473     -925.04178      7089.1003      4313.5346    
      2120   434.06892     -927.82695      6031.7286      4319.0143    
      2130   447.65067     -928.18672      4326.8989      4327.3827    
      2140   333.88602     -925.0224       2190.9182      4337.8975    
      2150   387.67077     -926.48996     -1025.522       4349.5454    
      2160   419.13357     -927.29921     -3988.2252      4360.8713    
      2170   335.72881     -924.9088      -5898.046       4370.475     
      2180   368.51268     -925.73723     -7418.7738      4377.3679    
      2190   411.70187     -926.84292     -8267.6419      4380.7869    
      2200   358.5919      -925.29068     -8024.9449      4380.3017    
      2210   382.28197     -925.88787     -7276.5614      4375.9652    
      2220   389.04303     -926.00928     -5678.8283      4368.1364    
      2230   319.282       -923.99924     -3099.9596      4357.584     
      2240   381.7024      -925.62947     -320.31251      4345.5057    
      2250   448.56204     -927.32788      2733.4977      4333.2338    
      2260   364.22248     -924.82501      5958.9729      4322.2143    
      2270   409.53223     -925.93635      7845.5159      4313.8884    
      2280   493.22852     -928.11924      8570.6598      4309.1482    
      2290   397.71156     -925.38836      8758.2732      4308.3684    
      2300   317.45186     -923.12406      7771.6901      4311.6262    
      2310   390.35304     -925.10636      5696.0682      4318.4962    
      2320   406.32818     -925.48335      3786.0969      4328.1092    
      2330   384.51871     -924.81142      1597.3366      4339.5766    
      2340   421.05324     -925.74464     -1352.7927      4351.8618    
      2350   416.58161     -925.52431     -4179.2993      4363.6057    
      2360   369.85213     -924.13043     -6356.9663      4373.4624    
      2370   407.4434      -925.0804      -8030.2454      4380.3458    
      2380   436.21617     -925.79712     -8654.0667      4383.4472    
      2390   407.03383     -924.94396     -8234.9095      4382.4392    
      2400   387.56904     -924.38898     -7075.3753      4377.4987    
      2410   407.87615     -924.94521     -5117.9172      4369.1894    
      2420   436.38776     -925.72619     -2538.8275      4358.4544    
      2430   450.77048     -926.11817      206.98091      4346.5197    
      2440   427.87095     -925.48209      2856.7227      4334.6868    
      2450   404.04644     -924.81923      5255.4241      4324.2018    
      2460   428.71609     -925.50962      6910.758       4316.1559    
      2470   404.61991     -924.86559      7999.9663      4311.3185    
      2480   354.76609     -923.5167       8264.7707      4310.1771    
      2490   404.05302     -924.9302       7252.1352      4312.8352    
      2500   421.86693     -925.48503      5676.8714      4318.8671    
      2510   353.37457     -923.64443      3973.5055      4327.5773    
      2520   388.23137     -924.65538      1699.6386      4338.1663    
      2530   475.91807     -927.12666     -953.69829      4349.5823    
      2540   404.58815     -925.1979      -3143.1726      4360.6103    
      2550   342.42235     -923.51321     -5139.249       4370.1814    
      2560   441.35971     -926.30924     -7037.1432      4377.3168    
      2570   456.76295     -926.84068     -7914.1425      4381.1334    
      2580   390.34881     -925.1591      -7850.5823      4381.1942    
      2590   412.30619     -925.98117     -7346.9769      4377.505     
      2600   422.1743      -926.53511     -5986.6111      4370.3398    
      2610   355.65374     -924.96877     -3607.4566      4360.3794    
      2620   348.87127     -925.009       -953.10099      4348.7469    
      2630   373.53565     -925.87957      1671.4313      4336.708     
      2640   363.19479     -925.72762      4219.3561      4325.5042    
      2650   370.31026     -926.01464      6359.6517      4316.3053    
      2660   377.33631     -926.27596      7902.1412      4310.0828    
      2670   362.94503     -925.92852      8645.533       4307.5239    
      2680   376.66689     -926.36089      8307.5038      4308.9452    
      2690   379.38527     -926.48737      7063.2927      4314.1985    
      2700   387.47056     -926.75786      4814.2781      4322.7086    
      2710   380.00321     -926.58036      2026.8269      4333.4588    
      2720   310.42077     -924.6415      -464.32855      4345.1871    
      2730   327.61981     -925.06721     -2820.7102      4356.708     
      2740   446.93519     -928.28281     -5118.7737      4366.8889    
      2750   431.73702     -927.76211     -6555.9949      4374.6605    
      2760   358.77496     -925.66861     -7363.5428      4379.3139    
      2770   401.31388     -926.79682     -8065.5817      4380.4304    
      2780   372.78716     -925.95782     -7804.8012      4377.724     
      2790   322.17032     -924.51503     -6531.284       4371.3382    
      2800   378.79762     -926.03183     -4577.4101      4361.8953    
      2810   386.06807     -926.14018     -1709.4201      4350.374     
      2820   356.75883     -925.21024      1508.2848      4338.1361    
      2830   409.23135     -926.52317      4208.5692      4326.6683    
      2840   383.72771     -925.65374      6484.7581      4317.233     
      2850   330.89228     -924.0433       7912.0815      4310.8471    
      2860   409.38619     -926.08607      8072.212       4308.1188    
      2870   398.98406     -925.66924      8001.5586      4309.1473    
      2880   346.82699     -924.136        7434.8671      4313.8747    
      2890   432.18116     -926.43465      5569.8854      4322.0006    
      2900   456.15023     -927.03261      3109.416       4332.6968    
      2910   388.00612     -925.09757      525.15487      4344.8369    
      2920   398.86997     -925.35203     -2321.8809      4357.1937    
      2930   441.0298      -926.46119     -4948.771       4368.4314    
      2940   434.45653     -926.22957     -6907.1504      4377.3073    
      2950   428.35831     -926.04214     -8274.6194      4382.8702    
      2960   394.98129     -925.12515     -8814.2881      4384.4786    
      2970   376.50444     -924.64038     -8552.3854      4381.8867    
      2980   379.99179     -924.77635     -7483.051       4375.251     
      2990   312.52167     -922.92924     -5335.1287      4365.1418    
      3000   292.95621     -922.37389     -2537.2648      4352.6082    
      3010   394.82567     -925.12582      805.5531       4339.0133    
      3020   457.79075     -926.74035      4606.2659      4325.9495    
      3030   431.46955     -925.8805       7984.128       4315.1503    
      3040   464.77108     -926.71353      9766.2064      4308.0971    
      3050   494.68118     -927.51758      10121.292      4305.574     
      3060   405.52091     -925.08646      9526.4737      4307.7249    
      3070   374.79245     -924.30386      7601.0443      4314.2297    
      3080   424.44004     -925.75459      4754.0521      4324.2049    
      3090   395.84124     -925.02153      1864.4532      4336.3643    
      3100   373.84921     -924.44593     -1079.9067      4349.3471    
      3110   424.1993      -925.85357     -3878.3939      4361.7673    
      3120   423.7586      -925.84854     -6166.0991      4372.3024    
      3130   353.04477     -923.89232     -7784.4317      4379.8643    
      3140   367.39763     -924.29652     -8904.5637      4383.6713    
      3150   415.66501     -925.65348     -9040.5353      4383.2281    
      3160   397.02353     -925.17712     -7879.4246      4378.5189    
      3170   358.14725     -924.14504     -5632.2555      4370.1409    
      3180   394.04411     -925.17044     -2942.3192      4359.1906    
      3190   453.4362      -926.82923     -255.85167      4346.9714    
      3200   431.80185     -926.24295      2464.871       4334.7779    
      3210   369.87031     -924.53417      5147.4238      4323.8846    
      3220   411.6822      -925.70599      6997.8634      4315.4802    
      3230   414.7024      -925.8231       8203.2482      4310.3933    
      3240   359.51873     -924.34807      8847.2131      4309.1412    
      3250   424.1017      -926.22976      8121.6769      4311.9461    
      3260   483.03313     -928.02109      6316.429       4318.4603    
      3270   383.95486     -925.47354      4096.3454      4327.8634    
      3280   329.79548     -924.1446       1126.5183      4339.0961    
      3290   359.19544     -925.10127     -2203.3135      4350.7734    
      3300   352.01088     -925.01053     -4528.885       4361.3796    
      3310   355.15607     -925.17899     -5911.2039      4369.8035    
      3320   413.34941     -926.87909     -6961.7739      4375.3615    
      3330   407.25025     -926.81546     -7262.7884      4377.5884    
      3340   369.02633     -925.86672     -6916.3658      4376.3593    
      3350   384.3333      -926.40575     -6239.5424      4371.8594    
      3360   379.12907     -926.37421     -4839.8306      4364.4709    
      3370   332.20481     -925.15714     -2684.5036      4354.9039    
      3380   348.8376      -925.66391     -293.47456      4344.1907    
      3390   391.705       -926.86393      2253.2004      4333.4751    
      3400   369.2408      -926.22153      4810.7275      4323.9465    
      3410   377.99539     -926.43036      6596.6691      4316.7388    
      3420   413.06681     -927.36813      7607.2616      4312.6461    
      3430   385.75631     -926.58631      7959.3903      4312.1024    
      3440   378.04417     -926.36188      7105.2114      4315.2108    
      3450   405.80694     -927.12309      5223.2821      4321.5589    
      3460   355.20919     -925.6965       3082.8208      4330.2932    
      3470   332.73113     -925.02439      462.73064      4340.395     
      3480   369.77905     -925.95277     -2328.1393      4350.6396    
      3490   316.51543     -924.32564     -4135.2225      4359.7601    
      3500   318.36276     -924.20413     -5319.2709      4366.8798    
      3510   437.88405     -927.28706     -6143.7036      4371.4296    
      3520   451.4149      -927.40605     -5974.1028      4373.0633    
      3530   401.035       -925.82295     -5309.5908      4371.8632    
      3540   434.85173     -926.62519     -4889.1393      4368.1379    
      3550   397.35517     -925.47797     -3936.2943      4362.1558    
      3560   357.06417     -924.28197     -2440.2297      4354.3966    
      3570   396.29833     -925.29098     -659.65256      4345.5819    
      3580   377.29988     -924.67191      1692.5808      4336.5819    
      3590   356.78677     -924.00608      4069.7774      4328.48      
      3600   461.58018     -926.81566      5509.6789      4322.3267    
      3610   460.32708     -926.70767      6535.8002      4318.7927    
      3620   380.94642     -924.47687      6871.2322      4318.3122    
      3630   447.85171     -926.33546      5682.8828      4320.9717    
      3640   431.35686     -925.90118      4147.8219      4326.2541    
      3650   292.10498     -922.05364      2696.0756      4333.4501    
      3660   352.38757     -923.71507      545.76979      4341.8358    
      3670   475.34518     -927.0781      -1567.7146      4350.4305    
      3680   398.37057     -924.89796     -2723.5338      4358.2789    
      3690   361.67944     -923.84529     -3877.8751      4364.7873    
      3700   472.71449     -926.89111     -5253.2452      4369.399     
      3710   467.33878     -926.73522     -5643.8504      4371.526     
      3720   396.16526     -924.79366     -5340.0375      4370.9821    
      3730   418.46894     -925.46626     -5022.9831      4367.9027    
      3740   411.71425     -925.3464      -4140.4194      4362.4914    
      3750   346.84351     -923.60646     -2526.0713      4355.203     
      3760   350.96551     -923.7545      -713.24899      4346.8006    
      3770   409.75985     -925.39322      1296.8345      4338.1583    
      3780   424.65613     -925.80446      3377.422       4330.2159    
      3790   395.73144     -925.00186      5258.4237      4323.9271    
      3800   421.72787     -925.73469      6373.8462      4320.1199    
      3810   449.83877     -926.55459      6679.5399      4319.2863    
      3820   429.70385     -926.07759      6168.9465      4321.5436    
      3830   413.36205     -925.73704      4699.9855      4326.6305    
      3840   427.07779     -926.25616      2365.2476      4333.8526    
      3850   374.17313     -924.9312       65.709271      4342.1527    
      3860   314.35938     -923.37862     -1789.3952      4350.4599    
      3870   346.24628     -924.33954     -3194.6587      4357.897     
      3880   406.81046     -926.09015     -4346.8073      4363.7891    
      3890   422.73079     -926.62008     -5264.197       4367.5922    
      3900   385.61347     -925.69867     -5593.2072      4368.8949    
      3910   350.34752     -924.82761     -5284.2906      4367.5572    
      3920   376.62418     -925.66226     -4545.6117      4363.7377    
      3930   398.23267     -926.37275     -3209.5346      4357.82      
      3940   386.69881     -926.16187     -1202.9883      4350.4672    
      3950   419.44593     -927.18104      815.55885      4342.6169    
      3960   449.32964     -928.15089      2452.4617      4335.208     
      3970   365.93378     -925.98606      3834.063       4329.0115    
      3980   330.37323     -925.11969      4407.4573      4324.6297    
      3990   369.01289     -926.30585      4347.1136      4322.3167    
      4000   332.27698     -925.38364      4440.2377      4322.0606    
      4010   327.7474      -925.32743      4365.7691      4323.8756    
      4020   384.47301     -926.95956      3649.1477      4327.6947    
      4030   367.17639     -926.52156      2592.6394      4333.1949    
      4040   370.20404     -926.63366      949.82172      4339.8636    
      4050   379.83134     -926.90861     -976.51046      4346.9408    
      4060   340.98758     -925.81358     -2578.9492      4353.5413    
      4070   334.95067     -925.60041     -3685.1393      4358.9134    
      4080   383.04114     -926.85429     -4374.4401      4362.5287    
      4090   379.23655     -926.63366     -4464.7838      4364.0763    
      4100   375.83946     -926.4033      -4177.6097      4363.5123    
      4110   400.39789     -926.9128      -3566.6297      4360.9853    
      4120   406.76028     -926.88114     -2595.5329      4356.8041    
      4130   394.76024     -926.32303     -1563.3354      4351.4308    
      4140   375.93408     -925.57031     -420.70821      4345.3663    
      4150   364.29609     -925.01789      1089.7589      4339.1691    
      4160   385.55214     -925.37976      2554.7048      4333.5304    
      4170   393.48982     -925.38665      3647.4623      4329.1188    
      4180   387.5281      -925.04713      4257.6388      4326.4296    
      4190   407.44169     -925.46419      4342.6975      4325.7297    
      4200   396.65678     -925.06114      4125.8274      4327.0588    
      4210   381.70991     -924.57007      3447.5732      4330.2984    
      4220   412.36621     -925.35631      2278.922       4335.1251    
      4230   416.69883     -925.41985      997.29908      4341.0047    
      4240   381.19155     -924.38539     -188.50076      4347.3441    
      4250   422.59487     -925.48668     -1728.7754      4353.5595    
      4260   452.04045     -926.26205     -3179.5029      4358.9413    
      4270   378.14715     -924.18552     -3897.5281      4362.8304    
      4280   392.79793     -924.57319     -4313.8935      4364.8654    
      4290   476.7107      -926.8921      -4411.0693      4364.8562    
      4300   443.53714     -925.99813     -3674.6717      4362.7905    
      4310   370.03848     -924.00032     -2450.054       4359.0173    
      4320   435.74413     -925.87104     -1579.1846      4354.0904    
      4330   448.29632     -926.2827      -651.94799      4348.4547    
      4340   375.08767     -924.32215      477.38294      4342.5604    
      4350   367.88278     -924.18019      1377.6578      4336.9203    
      4360   391.57374     -924.8837       2307.8921      4331.9666    
      4370   369.53806     -924.30698      3449.5919      4328.1375    
      4380   352.33998     -923.84962      4309.2215      4325.936     
      4390   390.25461     -924.90934      4535.0162      4325.7395    
      4400   449.98059     -926.57976      4150.2981      4327.6449    
      4410   433.45878     -926.1593       3566.3805      4331.4874    
      4420   389.59711     -924.996        2541.3247      4336.9803    
      4430   423.36087     -925.99113      834.57702      4343.6304    
      4440   456.85464     -926.99474     -955.25317      4350.6601    
      4450   421.0821      -926.09857     -2420.0007      4357.2403    
      4460   404.60904     -925.74931     -3825.6472      4362.6605    
      4470   397.77625     -925.6779      -5038.1745      4366.2558    
      4480   352.95029     -924.54495     -5520.2291      4367.4752    
      4490   352.88292     -924.64034     -5270.5418      4366.0923    
      4500   385.87776     -925.64715     -4279.447       4362.2426    
      4510   393.74659     -925.95337     -2785.9262      4356.4036    
      4520   377.01669     -925.56689     -1014.3897      4349.2938    
      4530   369.6706      -925.42151      592.99174      4341.7425    
      4540   390.50256     -926.04279      1925.6011      4334.5082    
      4550   375.38353     -925.65637      3213.9281      4328.2215    
      4560   320.08546     -924.1313       4612.8196      4323.4843    
      4570   368.32266     -925.4581       5548.3201      4320.9112    
      4580   447.43523     -927.63412      5768.3033      4320.9134    
      4590   409.77132     -926.58504      5518.0084      4323.5981    
      4600   409.55764     -926.59599      4378.6823      4328.824     
      4610   450.07727     -927.75039      2443.2023      4336.0626    
      4620   392.55637     -926.19262      288.42809      4344.4334    
      4630   351.64956     -925.08325     -2018.273       4352.9211    
      4640   390.652       -926.17446     -4177.7464      4360.4407    
      4650   357.91671     -925.25709     -5457.8271      4365.9972    
      4660   348.12237     -924.96713     -6090.8577      4368.9646    
      4670   358.94896     -925.23285     -6089.3033      4369.0459    
      4680   320.31064     -924.10017     -5276.7262      4366.2641    
      4690   365.18768     -925.25036     -3986.1644      4361.0064    
      4700   434.05719     -927.0019      -2086.5223      4353.9149    
      4710   415.10945     -926.28447      325.00323      4345.908     
      4720   429.80077     -926.50115      2190.2296      4338.0854    
      4730   439.21968     -926.56933      3448.3558      4331.3207    
      4740   380.34483     -924.7654       4528.7672      4326.2132    
      4750   394.22281     -925.00093      4997.4703      4323.2293    
      4760   404.37668     -925.13151      5076.2789      4322.5843    
      4770   373.08541     -924.12818      4828.0609      4324.3069    
      4780   431.07164     -925.61481      3946.0856      4328.2576    
      4790   426.69465     -925.37586      2998.7405      4334.0496    
      4800   395.58906     -924.42212      1737.0507      4341.2303    
      4810   493.42727     -927.05972     -499.04609      4349.1727    
      4820   456.40357     -925.97999     -2565.5858      4356.8749    
      4830   317.25063     -922.08548     -4145.5055      4363.3647    
      4840   374.37503     -923.62971     -5523.4199      4367.8689    
      4850   432.1182      -925.1738      -5810.8035      4369.7748    
      4860   386.93288     -923.87378     -5124.4128      4368.949     
      4870   455.74198     -925.75869     -4426.0183      4365.6858    
      4880   480.20706     -926.44019     -3142.9301      4360.3667    
      4890   379.82637     -923.68238     -1271.1656      4353.6194    
      4900   397.19643     -924.19021      135.28075      4346.2936    
      4910   450.76187     -925.70391      1403.2242      4339.0764    
      4920   393.22332     -924.13976      3057.1953      4332.5877    
      4930   395.8167      -924.24547      4366.3112      4327.5601    
      4940   446.83078     -925.70829      5165.7436      4324.5877    
      4950   447.5095      -925.80702      5500.7027      4324.034     
      4960   453.97907     -926.11423      4869.4419      4326.0183    
      4970   423.60694     -925.4371       3604.303       4330.2553    
      4980   375.91695     -924.27702      2050.4589      4336.165     
      4990   394.20259     -924.93767      152.32005      4343.0091    
      5000   376.2617      -924.58065     -1257.8749      4349.933     
      5010   342.09626     -923.73519     -2197.5936      4356.2682    
      5020   437.44303     -926.47659     -3596.3804      4361.5219    
      5030   471.20808     -927.54326     -4723.6624      4365.0654    
      5040   347.86892     -924.24801     -4890.9057      4366.3955    
      5050   340.99437     -924.14743     -4862.9374      4365.4007    
      5060   413.98104     -926.25654     -4474.3947      4362.1138    
      5070   363.89894     -924.93408     -2816.6618      4356.7803    
      5080   380.31859     -925.43297     -815.16621      4350.1595    
      5090   474.7539      -928.09424      786.34445      4343.1798    
      5100   437.23201     -927.10957      2316.0541      4336.6191    
      5110   367.81503     -925.23441      3417.6186      4331.1738    
      5120   378.12915     -925.55518      3831.4095      4327.3351    
      5130   375.63752     -925.50462      4089.3692      4325.3095    
      5140   352.19888     -924.85871      4101.562       4325.2009    
      5150   356.27724     -924.96178      3622.9457      4326.9948    
      5160   376.53082     -925.49909      2928.6892      4330.4749    
      5170   396.66581     -926.02561      2129.9753      4335.3196    
      5180   406.33032     -926.2614       894.68409      4341.1378    
      5190   403.60464     -926.15517     -570.40808      4347.3572    
      5200   401.31782     -926.06252     -1777.6587      4353.3065    
      5210   398.58711     -925.95784     -2739.4762      4358.4118    
      5220   409.72014     -926.24079     -3633.3869      4362.2087    
      5230   408.44447     -926.18764     -4437.5139      4364.2732    
      5240   366.67816     -925.01642     -4864.2066      4364.2395    
      5250   340.22175     -924.26468     -4588.0483      4361.9249    
      5260   355.75226     -924.6602      -3407.269       4357.4834    
      5270   384.78024     -925.40583     -1745.1899      4351.4738    
      5280   407.44124     -925.95823      7.3418479      4344.6804    
      5290   409.83509     -925.94311      1913.173       4337.9419    
      5300   407.69138     -925.80293      3598.1322      4332.1392    
      5310   455.18127     -927.05276      4391.1224      4328.0216    
      5320   431.05041     -926.34106      4603.7625      4325.9643    
      5330   364.22286     -924.4668       4358.9766      4326.058     
      5340   372.86126     -924.68615      3579.8265      4328.1726    
      5350   387.29633     -925.05221      2767.1874      4331.9616    
      5360   370.82365     -924.54803      2001.5493      4337.0472    
      5370   423.37176     -925.95014      801.75889      4343.0463    
      5380   443.63532     -926.45083     -591.1818       4349.4077    
      5390   416.51237     -925.65006     -2019.7714      4355.4789    
      5400   439.92246     -926.26829     -3572.4073      4360.5728    
      5410   385.30645     -924.73135     -4517.7239      4363.986     
      5420   318.82426     -922.86171     -4895.8704      4365.2655    
      5430   381.38592     -924.556       -4915.0269      4364.2264    
      5440   406.71358     -925.19015     -4027.479       4360.8964    
      5450   361.70206     -923.86054     -2262.5524      4355.7132    
      5460   434.12583     -925.76899     -554.27038      4349.4856    
      5470   499.20116     -927.44406      1009.0743      4343.0305    
      5480   444.18726     -925.81141      2587.072       4337.0959    
      5490   428.3055      -925.29529      3652.3413      4332.3929    
      5500   444.69366     -925.68555      4155.0985      4329.4094    
      5510   417.70023     -924.8873       4260.5278      4328.3769    
      5520   387.41172     -924.00841      3786.4305      4329.3262    
      5530   391.4658      -924.07472      2820.0361      4332.0317    
      5540   420.81142     -924.82586      1754.5379      4336.0548    
      5550   410.28928     -924.4574       858.26237      4340.9046    
      5560   374.34982     -923.37402     -19.553207      4346.1533    
      5570   419.82981     -924.52841     -1194.957       4351.37      
      5580   458.71218     -925.47495     -2113.1484      4356.0248    
      5590   422.67093     -924.35311     -2735.0399      4359.6827    
      5600   432.23527     -924.51561     -3416.6601      4362.0325    
      5610   459.25063     -925.17389     -3806.8373      4362.7672    
      5620   415.48214     -923.89222     -3473.0869      4361.7262    
      5630   422.45468     -924.03902     -2750.7405      4359.0601    
      5640   482.5901      -925.67601     -1779.9765      4355.1151    
      5650   458.31058     -925.00474     -453.97785      4350.3669    
      5660   420.71655     -923.99584      730.05605      4345.4258    
      5670   438.21996     -924.53696      1448.6687      4340.8388    
      5680   446.82283     -924.85765      2074.6314      4336.959     
      5690   430.94863     -924.53063      2701.4453      4334.078     
      5700   400.70781     -923.82128      3204.4385      4332.4783    
      5710   399.67706     -923.92631      3410.2593      4332.3832    
      5720   443.74181     -925.30423      2914.2782      4333.8651    
      5730   440.03681     -925.38839      2025.5077      4336.7026    
      5740   380.1905      -923.90851      1100.6649      4340.4921    
      5750   380.19346     -924.06115     -73.148027      4344.7858    
      5760   406.28874     -924.92615     -1166.3617      4349.0435    
      5770   378.78433     -924.28386     -1650.0955      4352.7719    
      5780   403.08647     -925.05977     -2000.8168      4355.7199    
      5790   488.24155     -927.54484     -2550.6689      4357.707     
      5800   455.77559     -926.80495     -2658.1202      4358.5043    
      5810   360.74855     -924.30892     -2473.5351      4358.0572    
      5820   392.62554     -925.3079      -2572.0244      4356.4269    
      5830   413.53442     -925.99589     -2182.4258      4353.6097    
      5840   375.49697     -925.02885     -1129.8544      4349.804     
      5850   410.64735     -926.07974     -98.885586      4345.4804    
      5860   424.34892     -926.53492      962.08477      4341.1344    
      5870   365.82871     -924.97299      2005.0765      4337.2653    
      5880   383.3734      -925.505        2376.1388      4334.3289    
      5890   416.18215     -926.45775      2387.4525      4332.5089    
      5900   352.93796     -924.73497      2616.5937      4331.8334    
      5910   342.1945      -924.45165      2486.9512      4332.3759    
      5920   370.42996     -925.22781      2026.5244      4334.0765    
      5930   357.64637     -924.84433      1586.9782      4336.7339    
      5940   373.30223     -925.23394      1041.4332      4340.1329    
      5950   431.92845     -926.80183      367.95705      4344.0174    
      5960   444.76903     -927.1047      -313.41941      4348.0759    
      5970   414.55762     -926.23413     -1042.5942      4351.9852    
      5980   413.49732     -926.18593     -1920.4173      4355.393     
      5990   422.62486     -926.42754     -2604.6265      4357.8991    
      6000   426.37106     -926.53497     -3006.6868      4359.1804    
      6010   394.7542      -925.67311     -3165.0901      4359.0468    
      6020   374.44926     -925.1282      -3218.6468      4357.4188    
      6030   343.95962     -924.28865     -2873.1293      4354.2882    
      6040   313.58404     -923.4245      -1872.0421      4349.8393    
      6050   366.5323      -924.83557     -609.70325      4344.5316    
      6060   408.7967      -925.9045       1024.6359      4338.9751    
      6070   383.44187     -925.0739       2797.8489      4333.9336    
      6080   415.56827     -925.82609      3906.5624      4330.1999    
      6090   464.33145     -927.02332      4387.0383      4328.2895    
      6100   423.78351     -925.75938      4508.1319      4328.4342    
      6110   399.96032     -924.98571      3773.0679      4330.6632    
      6120   429.98947     -925.70368      2321.0441      4334.6346    
      6130   397.50032     -924.67964      1143.5104      4339.7143    
      6140   392.60488     -924.42147      126.58685      4345.3403    
      6150   430.50212     -925.33032     -925.99279      4351.0258    
      6160   454.0534      -925.83274     -2031.5523      4356.2716    
      6170   440.0705      -925.31029     -3132.4591      4360.5534    
      6180   404.76825     -924.21974     -3934.0708      4363.3571    
      6190   376.62106     -923.33581     -4124.5023      4364.3151    
      6200   417.6879      -924.36565     -3994.3253      4363.3241    
      6210   458.93338     -925.39121     -3509.9546      4360.4537    
      6220   406.03833     -923.82005     -2365.7549      4355.958     
      6230   407.04131     -923.75606     -991.1973       4350.37      
      6240   463.06469     -925.20769      302.02272      4344.3334    
      6250   415.92519     -923.80069      1842.7638      4338.4784    
      6260   385.25236     -922.85972      3280.8475      4333.5129    
      6270   476.62249     -925.29567      4043.6673      4330.0793    
      6280   484.32638     -925.41927      4669.2266      4328.5563    
      6290   441.79985     -924.19662      4766.2306      4329.2123    
      6300   493.15044     -925.62422      3678.2785      4332.0569    
      6310   476.27583     -925.21491      2311.8836      4336.624     
      6320   383.82544     -922.74975      929.27438      4342.2823    
      6330   395.9506      -923.20119     -751.7769       4348.3648    
      6340   439.21691     -924.55382     -2089.3474      4354.1059    
      6350   406.46277     -923.83432     -2739.4021      4358.8857    
      6360   417.18435     -924.34724     -3324.2707      4362.3629    
      6370   466.37726     -925.98187     -3914.2385      4364.2568    
      6380   445.80649     -925.72205     -4104.1001      4364.3065    
      6390   395.74144     -924.61611     -3836.5422      4362.4258    
      6400   375.80686     -924.28855     -3144.2573      4358.749     
      6410   392.04422     -924.91653     -2201.8036      4353.6065    
      6420   411.82925     -925.6175      -1036.1643      4347.4524    
      6430   378.67405     -924.81559      652.54944      4340.8625    
      6440   382.47594     -925.00369      2347.8019      4334.6103    
      6450   420.26742     -926.12397      3698.6833      4329.4757    
      6460   397.1629      -925.5488       4698.2079      4326.0865    
      6470   416.57761     -926.15739      4983.9005      4324.8835    
      6480   443.72364     -927.0016       4601.4644      4325.9953    
      6490   393.85927     -925.72029      3767.4123      4329.2482    
      6500   371.62472     -925.1953       2398.5586      4334.2456    
      6510   382.36438     -925.56923      767.65537      4340.3583    
      6520   363.98832     -925.11169     -798.78276      4346.8335    
      6530   374.74978     -925.44168     -2241.9297      4352.9309    
      6540   392.41681     -925.94991     -3335.7393      4357.9742    
      6550   369.55226     -925.32351     -3885.7144      4361.4507    
      6560   378.32566     -925.56707     -4024.9502      4363.0927    
      6570   418.6925      -926.68559     -3945.9702      4362.8285    
      6580   406.46448     -926.35086     -3629.4409      4360.7037    
      6590   380.55291     -925.64303     -2923.2478      4356.8842    
      6600   359.69635     -925.06488     -1794.0539      4351.7169    
      6610   369.7709      -925.32405     -510.79976      4345.7344    
      6620   399.16539     -926.09838      903.87927      4339.5485    
      6630   377.90317     -925.44915      2513.1958      4333.833     
      6640   394.16941     -925.8312       3738.2022      4329.3127    
      6650   445.46707     -927.17916      4408.2022      4326.5456    
      6660   414.93126     -926.26977      4650.9406      4325.843     
      6670   375.75372     -925.13826      4066.4273      4327.2906    
      6680   376.22632     -925.10312      2907.3886      4330.6193    
      6690   342.7176      -924.10328      1912.9446      4335.3181    
      6700   375.64488     -924.92279      755.83545      4340.9013    
      6710   436.11724     -926.46843     -496.7686       4346.8286    
      6720   412.74538     -925.68013     -1517.2591      4352.524     
      6730   411.96277     -925.5317      -2604.5128      4357.4876    
      6740   436.09181     -926.07747     -3557.154       4361.2104    
      6750   392.44984     -924.75476     -3852.154       4363.2662    
      6760   396.0681      -924.75882     -3960.6606      4363.4923    
      6770   424.49235     -925.4493      -3705.0313      4361.8536    
      6780   396.89233     -924.5914      -2745.8513      4358.4997    
      6790   431.65837     -925.47427     -1825.8149      4353.8615    
      6800   437.15458     -925.55112     -881.55931      4348.3895    
      6810   347.27003     -922.99014      505.10007      4342.5586    
      6820   392.92569     -924.18506      1606.9345      4336.9897    
      6830   453.61233     -925.77578      2645.8913      4332.208     
      6840   362.91809     -923.17259      4207.6319      4328.7251    
      6850   415.30449     -924.5517       4965.0467      4327.1989    
      6860   524.94336     -927.52234      4786.2178      4327.9705    
      6870   460.16983     -925.70978      4251.203       4330.9766    
      6880   424.99301     -924.76765      2826.0918      4335.9347    
      6890   471.64282     -926.12698      771.64085      4342.184     
      6900   396.33317     -924.12131     -827.5815       4348.8055    
      6910   345.09415     -922.77082     -2223.0449      4355.0278    
      6920   405.09491     -924.50203     -3666.2294      4360.1733    
      6930   425.47221     -925.14803     -4533.9409      4363.5862    
      6940   406.96696     -924.74607     -4674.8506      4364.8636    
      6950   372.85771     -923.92985     -4259.8524      4363.939     
      6960   373.9633      -924.09876     -3503.4134      4361.013     
      6970   423.72866     -925.64618     -2423.2715      4356.4601    
      6980   440.11225     -926.31711     -991.01832      4350.81      
      6990   429.54095     -926.28128      460.0795       4344.737     
      7000   433.63337     -926.68807      1564.0188      4338.9129    
      7010   374.46545     -925.32342      2595.3368      4333.8684    
      7020   341.97542     -924.61957      3347.2538      4330.0686    
      7030   407.96467     -926.613        3627.5134      4327.8445    
      7040   406.84969     -926.72597      3860.1357      4327.3352    
      7050   345.9128      -925.13335      3855.3369      4328.6311    
      7060   386.59098     -926.33039      3084.6291      4331.6966    
      7070   406.70767     -926.942        1962.0691      4336.1856    
      7080   364.10308     -925.79478      685.67807      4341.5761    
      7090   379.65118     -926.24359     -913.47091      4347.2548    
      7100   368.36882     -925.92733     -2301.7871      4352.4901    
      7110   319.23044     -924.53749     -3228.4622      4356.635     
      7120   346.21214     -925.23816     -3865.2709      4359.241     
      7130   369.90371     -925.82019     -3766.6782      4360.0346    
      7140   377.5404      -925.94326     -3099.1296      4359.0659    
      7150   443.7245      -927.68624     -2447.6241      4356.6365    
      7160   440.53832     -927.51435     -1537.6799      4353.0832    
      7170   369.67517     -925.48689     -551.01819      4348.8389    
      7180   380.89104     -925.73963     -2.6721129      4344.35      
      7190   381.25089     -925.67361      786.14057      4339.9096    
      7200   349.88267     -924.71524      1952.9703      4335.8938    
      7210   393.47928     -925.82204      2750.4414      4332.8106    
      7220   411.33055     -926.19741      3274.7662      4331.0335    
      7230   397.14838     -925.69221      3499.3864      4330.796     
      7240   428.13504     -926.45179      3166.689       4332.1813    
      7250   415.57538     -926.01313      2423.4873      4335.0329    
      7260   360.33808     -924.4037       1416.918       4339.0016    
      7270   374.04914     -924.70215      143.8815       4343.609     
      7280   391.2855      -925.07713     -979.65363      4348.2702    
      7290   363.57411     -924.19576     -1688.4517      4352.4681    
      7300   401.33767     -925.12649     -2466.5754      4355.844     
      7310   432.57193     -925.86755     -3070.7408      4358.0444    
      7320   401.13975     -924.88926     -3014.2953      4358.8095    
      7330   385.32677     -924.3617      -2462.3667      4358.1672    
      7340   458.22282     -926.3014      -1929.5736      4356.3662    
      7350   489.12729     -927.09963     -1279.4746      4353.676     
      7360   424.11387     -925.28286     -402.05988      4350.4173    
      7370   402.08066     -924.6788       226.52566      4346.9884    
      7380   435.53095     -925.62407      520.52246      4343.6815    
      7390   394.27067     -924.50189      1049.3086      4340.6621    
      7400   376.96046     -924.04064      1544.4934      4338.1609    
      7410   426.88867     -925.44549      1847.7248      4336.3992    
      7420   382.71707     -924.23962      2237.7882      4335.5275    
      7430   346.76764     -923.25147      2313.0349      4335.7041    
      7440   434.02334     -925.67537      1819.2191      4336.9452    
      7450   437.91071     -925.79242      1466.9405      4339.0473    
      7460   374.008       -924.03912      1118.5072      4341.835     
      7470   419.37695     -925.32109      213.184        4345.1139    
      7480   448.38179     -926.15898     -536.82852      4348.489     
      7490   408.30627     -925.09852     -895.15271      4351.6168    
      7500   425.10695     -925.63604     -1540.3473      4354.2956    
      7510   432.32009     -925.9331      -2245.0639      4356.2344    
      7520   406.16732     -925.33138     -2556.8057      4357.1209    
      7530   391.38166     -925.06557     -2461.3586      4356.8127    
      7540   390.84909     -925.21187     -2080.915       4355.3582    
      7550   419.46525     -926.19631     -1607.4016      4352.9373    
      7560   436.32564     -926.90582     -1117.306       4349.7785    
      7570   368.0512      -925.26344     -434.83749      4346.1288    
      7580   330.23412     -924.41452      222.26         4342.3031    
      7590   356.16987     -925.30164      820.34627      4338.6103    
      7600   328.76197     -924.66252      1629.1303      4335.3424    
      7610   336.83167     -924.95794      2385.1603      4332.8629    
      7620   408.76309     -927.00476      2867.6618      4331.5103    
      7630   411.59875     -927.12826      3178.2725      4331.5088    
      7640   391.10092     -926.60202      3117.6265      4332.9879    
      7650   405.77848     -927.04849      2484.7602      4335.9036    
      7660   411.6209      -927.24607      1394.2714      4339.9597    
      7670   406.45076     -927.13657      0.17173334     4344.6459    
      7680   369.47509     -926.13354     -1345.9115      4349.3182    
      7690   337.02508     -925.23326     -2411.5869      4353.3491    
      7700   346.16955     -925.46345     -3090.5922      4356.2378    
      7710   346.76897     -925.43345     -3239.5167      4357.6747    
      7720   357.30065     -925.66274     -3186.928       4357.5804    
      7730   395.75819     -926.65557     -2942.4115      4355.9879    
      7740   382.86926     -926.21968     -2043.3313      4353.0456    
      7750   355.63046     -925.38641     -834.41414      4349.1751    
      7760   401.86177     -926.58352      5.3382038      4344.9237    
      7770   408.72957     -926.68057      867.44932      4340.7105    
      7780   360.84223     -925.2659       1878.7634      4336.9461    
      7790   384.25541     -925.8306       2514.2063      4334.0762    
      7800   400.48771     -926.18682      2832.4891      4332.3961    
      7810   359.44244     -924.95831      2951.418       4332.052     
      7820   368.01112     -925.10809      2665.38        4333.0807    
      7830   405.61405     -926.0517       2277.0581      4335.3562    
      7840   415.6355      -926.23174      1837.6363      4338.6956    
      7850   436.62214     -926.73255      901.99728      4342.8693    
      7860   439.58333     -926.75461     -291.60469      4347.4458    
      7870   375.41745     -924.93116     -1395.121       4351.8767    
      7880   343.12687     -923.98993     -2530.6074      4355.6305    
      7890   378.07606     -924.89652     -3338.6127      4358.1862    
      7900   403.44914     -925.524       -3444.5814      4359.1806    
      7910   394.66        -925.20628     -3044.0705      4358.5622    
      7920   421.8478      -925.89616     -2537.6555      4356.5113    
      7930   424.44373     -925.91342     -1669.516       4353.292     
      7940   373.33148     -924.45045     -612.36767      4349.3164    
      7950   377.36606     -924.51511      219.2289       4345.07      
      7960   414.07311     -925.47432      1054.9025      4340.959     
      7970   412.40027     -925.36784      1908.4196      4337.3761    
      7980   407.55757     -925.18308      2591.2867      4334.7088    
      7990   423.95394     -925.59668      3073.6633      4333.271     
      8000   434.24507     -925.85556      3153.9116      4333.2722    
      8010   430.46054     -925.74662      2668.086       4334.7355    
      8020   397.00984     -924.82895      1943.8866      4337.4419    
      8030   386.05726     -924.53531      1180.8597      4341.0576    
      8040   429.93599     -925.76319      182.72751      4345.2101    
      8050   413.16998     -925.31432     -750.11563      4349.443     
      8060   375.87665     -924.29601     -1720.682       4353.3102    
      8070   432.756       -925.89406     -2847.6919      4356.344     
      8080   421.77064     -925.62406     -3318.1029      4358.0491    
      8090   328.86363     -923.07999     -3022.5151      4358.2123    
      8100   368.31566     -924.19807     -2733.1979      4356.9413    
      8110   419.675       -925.63342     -2011.4462      4354.4053    
      8120   418.22581     -925.60731     -840.72872      4350.9554    
      8130   456.3359      -926.70094      189.98224      4347.1253    
      8140   474.01101     -927.27943      1012.0697      4343.4031    
      8150   389.97194     -925.08405      1651.2698      4340.1787    
      8160   362.80854     -924.47994      1739.3012      4337.7296    
      8170   399.21352     -925.66954      1650.406       4336.1079    
      8180   366.77597     -924.96218      1803.6507      4335.2852    
      8190   350.26283     -924.68228      1863.8229      4335.3138    
      8200   363.30002     -925.20731      1813.3581      4336.219     
      8210   388.86802     -926.06888      1547.318       4337.9698    
      8220   419.38149     -927.0725       1043.6727      4340.4383    
      8230   398.85138     -926.65786      519.38265      4343.3971    
      8240   377.34277     -926.19557     -231.04445      4346.5884    
      8250   390.29621     -926.67253     -1247.5304      4349.6549    
      8260   361.52617     -925.97001     -2004.4073      4352.1398    
      8270   337.14965     -925.35471     -2372.1323      4353.6894    
      8280   391.73336     -926.91263     -2511.8887      4354.1229    
      8290   387.94853     -926.84137     -2190.2622      4353.3896    
      8300   330.54739     -925.2646      -1595.5782      4351.6398    
      8310   364.95441     -926.21514     -1252.9814      4349.134     
      8320   392.55043     -926.95494     -730.98741      4346.0588    
      8330   353.36907     -925.82778      270.6885       4342.6782    
      8340   355.50944     -925.83233      1133.4558      4339.4364    
      8350   379.20435     -926.40994      1712.6987      4336.7348    
      8360   386.61569     -926.51928      2074.0024      4334.8445    
      8370   373.34919     -926.0472       2241.2485      4333.9337    
      8380   369.073       -925.81765      2207.8241      4334.0748    
      8390   363.89501     -925.5507       2146.6266      4335.2581    
      8400   386.69028     -926.04826      1867.2364      4337.4436    
      8410   409.67526     -926.54075      1337.6258      4340.4995    
      8420   435.70858     -927.12682      509.98987      4344.1739    
      8430   427.93572     -926.79735     -518.05381      4348.0807    
      8440   368.39391     -925.05593     -1525.0531      4351.744     
      8450   363.82444     -924.84763     -2549.775       4354.6813    
      8460   360.6878      -924.66909     -3147.6162      4356.4256    
      8470   333.11143     -923.80648     -2997.1002      4356.7103    
      8480   396.83509     -925.47057     -2542.9377      4355.5867    
      8490   444.41928     -926.68103     -1801.101       4353.2785    
      8500   401.7669      -925.4159      -952.72278      4350.1347    
      8510   388.00744     -924.97517     -221.32431      4346.5499    
      8520   407.72198     -925.46818      615.15403      4342.8801    
      8530   383.52153     -924.74269      1693.9304      4339.5303    
      8540   433.12474     -926.07437      2285.6622      4336.97      
      8550   458.65781     -926.75531      2642.6381      4335.4892    
      8560   406.73959     -925.31459      2813.8255      4335.2546    
      8570   398.39724     -925.09559      2400.4935      4336.3252    
      8580   414.254       -925.55056      1597.699       4338.514     
      8590   401.78722     -925.22066      741.95457      4341.4584    
      8600   402.0854      -925.2474      -151.5869       4344.7537    
      8610   369.58423     -924.3568      -826.6476       4347.9901    
      8620   356.30644     -923.98274     -1327.3431      4350.8458    
      8630   422.78111     -925.81187     -1785.4537      4353.0752    
      8640   404.74271     -925.29279     -1877.1518      4354.4794    
      8650   397.22692     -925.0726      -2043.6916      4354.9935    
      8660   450.85392     -926.56058     -2264.1257      4354.5388    
      8670   387.39586     -924.81061     -1791.4953      4353.0486    
      8680   350.60585     -923.79634     -1093.9875      4350.7257    
      8690   439.52299     -926.26236     -638.93017      4347.8812    
      8700   442.47163     -926.35071      98.000315      4344.7582    
      8710   371.50115     -924.3992       1092.6052      4341.7049    
      8720   406.31284     -925.38442      1709.0014      4339.1591    
      8730   436.07565     -926.23466      2125.8462      4337.4209    
      8740   410.40874     -925.56399      2289.7437      4336.6816    
      8750   411.28783     -925.64769      2083.5534      4337.0125    
      8760   411.88514     -925.74083      1652.9773      4338.3223    
      8770   394.13163     -925.33828      983.84125      4340.4073    
      8780   381.74452     -925.0953       224.64388      4342.9588    
      8790   346.18081     -924.20168     -386.58457      4345.6301    
      8800   371.29042     -924.98393     -1006.3694      4348.1242    
      8810   407.28679     -926.07861     -1477.7408      4350.1537    
      8820   380.1678      -925.43066     -1567.1399      4351.5069    
      8830   393.23972     -925.90754     -1653.2709      4352.1224    
      8840   409.83904     -926.50464     -1657.8319      4351.9628    
      8850   358.65788     -925.22331     -1324.8806      4351.0391    
      8860   371.56747     -925.7102      -1151.1286      4349.4837    
      8870   416.73529     -927.10858     -937.66409      4347.389     
      8880   363.46191     -925.77253     -158.65474      4344.8817    
      8890   356.67964     -925.70299      676.74785      4342.3058    
      8900   410.47768     -927.31297      1245.4622      4340.0422    
      8910   404.86655     -927.27948      1714.7308      4338.3687    
      8920   391.76817     -927.03632      1866.5064      4337.4958    
      8930   392.46946     -927.17525      1579.6101      4337.4888    
      8940   344.30338     -925.93765      1074.3196      4338.2256    
      8950   314.80517     -925.18227      335.91523      4339.4643    
      8960   304.35263     -924.91562     -149.67627      4340.8792    
      8970   301.41903     -924.81509     -204.41198      4342.2489    
      8980   357.70389     -926.32004     -223.10431      4343.5293    
      8990   390.44271     -927.1363      -222.27887      4344.7131    
      9000   377.66685     -926.67812     -163.63479      4345.8031    
      9010   407.13367     -927.38793     -321.99246      4346.8141    
      9020   416.82596     -927.54529     -532.5302       4347.6787    
      9030   365.85241     -926.02861     -536.50617      4348.3096    
      9040   388.55047     -926.55983     -705.37527      4348.6851    
      9050   425.56772     -927.47762     -916.47363      4348.731     
      9060   385.77122     -926.27456     -892.32752      4348.3593    
      9070   352.83807     -925.27421     -883.30825      4347.5682    
      9080   338.75822     -924.78906     -920.31525      4346.3586    
      9090   333.68394     -924.53884     -604.28132      4344.73      
      9100   377.37007     -925.62644      44.291525      4342.8304    
      9110   416.62798     -926.58446      727.44271      4340.9518    
      9120   391.47758     -925.7778       1370.7757      4339.4177    
      9130   377.09813     -925.29552      1687.9115      4338.5183    
      9140   390.07811     -925.58271      1603.2451      4338.4027    
      9150   397.65119     -925.72873      1262.2433      4339.0386    
      9160   377.11736     -925.10326      980.76943      4340.283     
      9170   383.63897     -925.23236      637.29247      4341.9974    
      9180   417.79908     -926.12824      370.7354       4344.0309    
      9190   432.11938     -926.48581      137.6404       4346.2563    
      9200   395.87109     -925.45374     -247.88016      4348.5586    
      9210   422.12817     -926.16682     -1046.2728      4350.7417    
      9220   428.69232     -926.34291     -1642.7185      4352.4537    
      9230   368.20909     -924.66369     -1793.4256      4353.4194    
      9240   389.98398     -925.26411     -2081.7614      4353.5339    
      9250   418.35791     -926.04439     -2056.3019      4352.6779    
      9260   351.10887     -924.16659     -1400.9968      4350.8747    
      9270   368.10357     -924.61571     -884.54913      4348.3952    
      9280   430.79473     -926.31798     -366.57338      4345.4884    
      9290   362.79054     -924.38631      712.67652      4342.4281    
      9300   370.12518     -924.54153      1405.2642      4339.6768    
      9310   447.09808     -926.61271      1790.2923      4337.568     
      9320   418.07939     -925.74645      2361.1402      4336.3113    
      9330   417.00508     -925.67662      2454.1765      4336.1474    
      9340   439.65479     -926.27791      2049.6024      4337.1269    
      9350   384.40363     -924.72783      1602.525       4339.0888    
      9360   379.96973     -924.58872      806.89678      4341.8122    
      9370   411.25048     -925.43088     -121.34924      4344.9368    
      9380   377.31287     -924.45302     -632.88732      4348.0522    
      9390   416.80857     -925.51049     -1155.2272      4350.8926    
      9400   450.65686     -926.41089     -1580.3248      4353.2139    
      9410   397.92415     -924.92279     -1674.0877      4354.8223    
      9420   429.34825     -925.78353     -2013.9718      4355.6387    
      9430   459.00662     -926.61427     -2386.0166      4355.5043    
      9440   351.34365     -923.64825     -2104.5478      4354.2688    
      9450   341.0807      -923.37526     -1799.6268      4352.0264    
      9460   419.38252     -925.54169     -1474.7976      4348.9159    
      9470   393.42535     -924.80324     -337.64558      4345.1255    
      9480   378.40496     -924.3639       1144.1636      4341.1683    
      9490   429.51228     -925.74934      2247.969       4337.714     
      9500   437.48664     -925.93933      2871.4122      4335.285     
      9510   434.21183     -925.83939      2938.4795      4334.1776    
      9520   434.82566     -925.87272      2700.5829      4334.4438    
      9530   409.14544     -925.19761      2362.0208      4335.991     
      9540   390.79915     -924.73717      1815.0244      4338.6673    
      9550   395.54674     -924.91909      897.0022       4342.2189    
      9560   420.48701     -925.66762     -289.82622      4346.2258    
      9570   418.22747     -925.6763      -1333.6472      4350.1465    
      9580   373.7224      -924.51867     -1967.8244      4353.4947    
      9590   366.63411     -924.38954     -2478.8188      4355.949     
      9600   420.15267     -925.94702     -2932.4773      4357.2507    
      9610   410.74208     -925.77217     -2812.7439      4357.1948    
      9620   390.38376     -925.30093     -2313.8791      4355.8165    
      9630   422.20183     -926.29093     -1880.8561      4353.3228    
      9640   385.82566     -925.39795     -1261.4232      4349.9238    
      9650   330.05272     -923.94121     -397.19641      4345.91      
      9660   379.48332     -925.38497      442.90362      4341.6712    
      9670   417.49581     -926.50675      1605.7601      4337.6235    
      9680   414.52947     -926.49856      2736.2778      4334.3017    
      9690   428.21195     -926.96859      3283.1555      4332.2226    
      9700   418.63724     -926.81708      3213.6172      4331.6538    
      9710   344.43346     -924.86392      2768.2443      4332.5892    
      9720   339.40201     -924.80368      1975.5251      4334.8345    
      9730   379.44788     -925.9761       1094.3301      4338.0428    
      9740   368.24617     -925.70952      326.77916      4341.8205    
      9750   365.80923     -925.66891     -607.70852      4345.7976    
      9760   397.01219     -926.54986     -1479.2201      4349.5426    
      9770   373.57889     -925.90409     -1809.4629      4352.6593    
      9780   362.05505     -925.57669     -2070.7144      4354.9591    
      9790   417.60576     -927.10079     -2543.5673      4356.2928    
      9800   408.75974     -926.83557     -2612.4675      4356.4515    
      9810   372.25866     -925.80658     -2306.7161      4355.3849    
      9820   390.34972     -926.28563     -1945.0217      4353.2098    
      9830   394.15482     -926.35495     -1404.808       4350.0939    
      9840   369.76761     -925.6301      -725.40329      4346.2833    
      9850   359.40306     -925.27539     -56.540871      4342.0853    
      9860   333.18548     -924.44685      968.51163      4337.8303    
      9870   338.97244     -924.46547      2210.2605      4333.9977    
      9880   410.87621     -926.25688      3112.7349      4331.1518    
      9890   411.73852     -926.03577      3878.2438      4329.7436    
      9900   413.45477     -925.85687      4067.3132      4330.1318    
      9910   473.29959     -927.30648      3460.9495      4332.4214    
      9920   447.17709     -926.41287      2510.4621      4336.3779    
      9930   374.02747     -924.2711       1162.2992      4341.5761    
      9940   405.7066      -925.05576     -645.54898      4347.3908    
      9950   408.86115     -925.04512     -1964.618       4353.0158    
      9960   364.33518     -923.72303     -2713.577       4357.8179    
      9970   419.32757     -925.169       -3554.0461      4361.3916    
      9980   454.29346     -926.06846     -3987.6031      4363.3367    
      9990   384.59798     -924.09217     -3720.8445      4363.4338    
     10000   392.88062     -924.29564     -3556.7201      4361.7453    
     10010   436.41762     -925.48198     -3235.7045      4358.3387    
     10020   389.93979     -924.17985     -2034.3947      4353.3802    
     10030   376.91966     -923.80495     -481.20942      4347.4007    
     10040   439.90544     -925.532        1067.1395      4341.1154    
     10050   443.44054     -925.61593      2697.9589      4335.2631    
     10060   426.19702     -925.14537      3952.6734      4330.5994    
     10070   431.59453     -925.32289      4634.9825      4327.7228    
     10080   434.37319     -925.45202      4761.9907      4326.978     
     10090   417.00899     -925.0427       4325.0973      4328.4562    
     10100   414.35011     -925.05656      3341.1576      4331.9865    
     10110   407.84437     -924.96755      2067.445       4337.1545    
     10120   429.28785     -925.66107      429.07104      4343.3814    
     10130   414.40492     -925.35311     -1187.1327      4349.9269    
     10140   370.90022     -924.23775     -2567.8285      4356.0326    
     10150   384.06914     -924.67886     -3849.2023      4361.0187    
     10160   398.24549     -925.14345     -4689.7947      4364.2626    
     10170   373.87765     -924.53191     -4666.4753      4365.3474    
     10180   403.6944      -925.42283     -4137.2863      4364.231     
     10190   440.68242     -926.52603     -3384.131       4361.1243    
     10200   407.97219     -925.70853     -2454.6832      4356.3619    
     10210   381.57772     -925.06259     -1436.8278      4350.3642    
     10220   377.19482     -925.01315     -82.757413      4343.6132    
     10230   360.63339     -924.59965      1832.261       4336.7576    
     10240   394.99021     -925.57798      3590.8811      4330.6708    
     10250   454.50959     -927.25955      4669.2544      4326.1713    
     10260   441.36732     -926.95394      5243.1022      4323.7973    
     10270   400.43459     -925.9004       5273.5027      4323.8454    
     10280   391.06971     -925.72965      4545.8024      4326.3583    
     10290   383.5355      -925.60664      3172.8887      4331.0425    
     10300   357.34056     -924.94767      1440.8488      4337.3019    
     10310   362.47625     -925.13142     -271.3969       4344.3621    
     10320   390.50311     -925.9297      -1718.2113      4351.432     
     10330   381.66175     -925.68979     -2971.1727      4357.8175    
     10340   375.17866     -925.50423     -4386.1137      4362.8845    
     10350   379.72915     -925.61605     -5402.7296      4365.9509    
     10360   359.52734     -925.03299     -5436.8436      4366.5149    
     10370   363.25808     -925.10273     -4779.0464      4364.5064    
     10380   402.97636     -926.15111     -3682.58        4360.1926    
     10390   395.6775      -925.8687      -1893.4338      4354.0867    
     10400   399.77733     -925.87347      0.9186144      4346.9973    
     10410   450.75734     -927.12879      1672.6318      4339.8043    
[...]
     47810   395.02703     -924.5305      -3266.5668      4361.049     
     47820   410.40165     -924.87875     -3806.3523      4363.0711    
     47830   430.20024     -925.36354     -3988.3539      4363.3079    
     47840   415.42671     -924.91221     -3668.6242      4361.6667    
     47850   399.71867     -924.45275     -2995.3664      4358.2832    
     47860   395.52075     -924.31732     -2032.9936      4353.469     
     47870   399.83844     -924.4159      -775.67282      4347.6795    
     47880   404.98476     -924.53424      608.21611      4341.5007    
     47890   401.43991     -924.40824      2117.9574      4335.5891    
     47900   412.10035     -924.67626      3533.0954      4330.6471    
     47910   435.01254     -925.29344      4512.6734      4327.3279    
     47920   442.14028     -925.49524      4896.3122      4326.0938    
     47930   447.17786     -925.67305      4705.3083      4327.1371    
     47940   433.38116     -925.35931      4054.567       4330.3928    
     47950   425.73458     -925.23819      2789.0109      4335.5678    
     47960   425.24714     -925.32962      1088.7937      4342.0945    
     47970   407.94069     -924.9577      -799.47227      4349.1934    
     47980   394.56963     -924.68793     -2592.5162      4355.9843    
     47990   393.86187     -924.76211     -4027.869       4361.6139    
     48000   396.06409     -924.914       -4821.1908      4365.3967    
     48010   399.1405      -925.09458     -5081.4399      4366.928     
     48020   386.38665     -924.83734     -4826.5786      4366.0627    
     48030   387.02251     -924.94772     -4099.8179      4362.9045    
     48040   415.51032     -925.83288     -2913.969       4357.7896    
     48050   409.02378     -925.75015     -1412.0039      4351.2724    
     48060   375.77728     -924.91196      194.9474       4344.0555    
     48070   395.10788     -925.51575      1741.3542      4336.8915    
     48080   417.62828     -926.20463      3276.8654      4330.5126    
     48090   385.18429     -925.36153      4723.2554      4325.6428    
     48100   408.17716     -926.05829      5347.2785      4322.9315    
     48110   424.75437     -926.59099      5290.3858      4322.6919    
     48120   388.28788     -925.65983      4766.5448      4324.9248    
     48130   384.71685     -925.63786      3584.1907      4329.398     
     48140   394.03739     -925.96505      2006.7912      4335.5923    
     48150   366.24483     -925.24251      346.11239      4342.7975    
     48160   373.96907     -925.48254     -1433.5788      4350.236     
     48170   390.9601      -925.96012     -3104.9022      4357.0717    
     48180   364.24969     -925.20946     -4331.3459      4362.5122    
     48190   361.70173     -925.11766     -5063.2286      4365.953     
     48200   385.72918     -925.75471     -5199.2159      4367.0256    
     48210   391.90638     -925.89488     -4691.5176      4365.6476    
     48220   407.26716     -926.29704     -3813.8655      4362.0316    
     48230   403.16681     -926.16525     -2474.1063      4356.5919    
     48240   393.00295     -925.86664     -890.69119      4349.9516    
     48250   410.88775     -926.34589      450.63252      4342.8373    
     48260   384.4917      -925.59345      1848.3087      4335.8985    
     48270   352.73664     -924.68201      3326.0715      4329.7968    
     48280   400.58789     -925.97227      4368.2539      4325.2053    
     48290   407.4901      -926.12846      5043.306       4322.625     
     48300   363.10654     -924.87172      5333.5246      4322.3851    
     48310   397.47415     -925.80613      4809.5102      4324.6217    
     48320   438.11303     -926.92222      3670.8893      4329.1232    
     48330   376.82451     -925.21802      2365.059       4335.4043    
     48340   372.7961      -925.09862      436.73806      4342.8469    
     48350   401.00852     -925.85437     -1586.8192      4350.5765    
     48360   376.60768     -925.13706     -3058.9796      4357.6608    
     48370   368.34939     -924.85842     -4261.3124      4363.3709    
     48380   405.79966     -925.84097     -5198.8344      4367.1097    
     48390   389.09964     -925.32055     -5289.3144      4368.4328    
     48400   386.54529     -925.20075     -4860.9839      4367.2565    
     48410   435.80278     -926.52323     -4200.3619      4363.7516    
     48420   411.31546     -925.80781     -2864.7939      4358.2445    
     48430   391.89817     -925.24139     -1334.2365      4351.3405    
     48440   415.18267     -925.85602      138.28945      4343.7498    
     48450   386.59783     -925.02109      2029.5158      4336.1958    
     48460   393.34487     -925.15955      3611.5572      4329.5364    
     48470   426.6201      -926.02996      4632.9242      4324.51      
     48480   383.62543     -924.78907      5428.9321      4321.62      
     48490   379.91085     -924.64511      5579.4705      4321.234     
     48500   424.42585     -925.83962      5005.1593      4323.4414    
     48510   386.04312     -924.73472      4165.2257      4328.025     
     48520   394.10795     -924.92122      2624.7252      4334.5994    
     48530   444.3551      -926.26542      582.13241      4342.4744    
     48540   401.55911     -925.02491     -1117.4402      4350.739     
     48550   374.06396     -924.20652     -2738.9137      4358.5735    
     48560   436.59915     -925.87338     -4509.4639      4365.181     
     48570   423.8634      -925.44953     -5533.5238      4369.7367    
     48580   392.0066      -924.51413     -5802.5802      4371.7178    
     48590   428.67452     -925.49084     -5632.9407      4370.9512    
     48600   433.11384     -925.58507     -4840.4626      4367.5026    
     48610   393.41995     -924.46802     -3512.7965      4361.7316    
     48620   418.83666     -925.16098     -2113.633       4354.2378    
     48630   419.77663     -925.16873     -296.80284      4345.7007    
     48640   379.24323     -924.01826      1828.3046      4336.9748    
     48650   393.84655     -924.38282      3667.5187      4329.0383    
     48660   425.33077     -925.20321      5186.2152      4322.7587    
     48670   411.34287     -924.76523      6376.1585      4318.8573    
     48680   426.50956     -925.15404      6707.4281      4317.8829    
     48690   459.15226     -926.05431      6228.4129      4320.021     
     48700   425.30002     -925.14469      5185.7923      4325.0951    
     48710   397.86854     -924.43283      3306.5273      4332.6438    
     48720   425.3603      -925.24919      805.78965      4341.8269    
     48730   419.71855     -925.14795     -1489.1546      4351.5206    
     48740   402.50983     -924.72906     -3445.8873      4360.6402    
     48750   404.28796     -924.84314     -5234.8416      4368.2256    
     48760   385.45594     -924.39056     -6473.9181      4373.4105    
     48770   393.68735     -924.69964     -7042.284       4375.5659    
     48780   418.839       -925.50395     -6703.092       4374.394     
     48790   398.87174     -925.07664     -5443.3107      4370.0314    
     48800   410.34919     -925.53311     -3921.8573      4363.0314    
     48810   424.63933     -926.08322     -2144.507       4354.1128    
     48820   377.21907     -924.90881      229.32687      4344.1359    
     48830   391.29781     -925.41502      2573.3056      4334.1969    
     48840   432.56806     -926.67791      4533.4528      4325.3891    
     48850   379.857       -925.3278       6245.0646      4318.6449    
     48860   378.53771     -925.38954      7099.1087      4314.744     
     48870   422.64499     -926.72942      7053.4106      4314.1024    
     48880   358.47296     -925.06371      6544.2754      4316.7503    
     48890   362.56099     -925.27542      5037.2668      4322.4591    
     48900   415.6199      -926.83906      2891.6343      4330.5842    
     48910   371.12892     -925.67643      718.72181      4340.1779    
     48920   358.10098     -925.35685     -1570.5737      4350.2261    
     48930   383.34637     -926.07079     -3742.3128      4359.6522    
     48940   362.80679     -925.49032     -5320.6503      4367.4249    
     48950   375.36556     -925.8171      -6486.1596      4372.7473    
     48960   398.15247     -926.42601     -6991.7258      4375.0356    
     48970   372.92132     -925.70666     -6541.2015      4374.0265    
     48980   396.89646     -926.3581      -5605.8456      4369.8855    
     48990   416.91072     -926.9001      -4176.1893      4363.0438    
     49000   357.62782     -925.23451     -2073.6693      4354.1862    
     49010   376.02033     -925.7052       43.496929      4344.2789    
     49020   418.6867      -926.81731      2115.8432      4334.3244    
     49030   362.97083     -925.17891      4374.3321      4325.3154    
     49040   363.005       -925.07515      6087.7395      4318.2801    
     49050   421.17868     -926.56013      7001.77        4314.0173    
     49060   385.84363     -925.44451      7410.7213      4312.9845    
     49070   368.76582     -924.85035      6854.427       4315.3769    
     49080   416.23253     -926.03052      5335.5979      4320.9733    
     49090   389.79934     -925.14133      3569.5346      4329.1397    
     49100   372.01469     -924.49101      1381.3928      4339.0733    
     49110   419.43217     -925.61948     -1214.7585      4349.7647    
     49120   422.96185     -925.50956     -3468.0367      4360.0197    
     49130   388.17453     -924.35854     -5065.9294      4368.7633    
     49140   439.98957     -925.63426     -6476.5523      4375.1754    
     49150   455.99398     -925.94708     -7231.1717      4378.5654    
     49160   401.02967     -924.34935     -7053.5299      4378.5473    
     49170   415.96529     -924.73241     -6495.9278      4375.1486    
     49180   441.13363     -925.42494     -5286.9543      4368.6307    
     49190   401.55443     -924.33886     -3196.9871      4359.5732    
     49200   392.26546     -924.08945     -756.36607      4348.948     
     49210   421.64113     -924.89975      1694.957       4337.9004    
     49220   407.52093     -924.49034      4261.4715      4327.6004    
     49230   429.21903     -925.07679      6244.5229      4319.2222    
     49240   445.72053     -925.53912      7561.7078      4313.6967    
     49250   403.45564     -924.39641      8125.6631      4311.6459    
     49260   403.02398     -924.43459      7409.3201      4313.3296    
     49270   423.31199     -925.06417      5910.5204      4318.4733    
     49280   388.88201     -924.1789       4232.7317      4326.4445    
     49290   391.19551     -924.30167      2137.9401      4336.4838    
     49300   442.57935     -925.77667     -411.45498      4347.6304    
     49310   433.51932     -925.57267     -2806.5755      4358.7136    
     49320   427.80569     -925.46632     -4929.9994      4368.5861    
     49330   441.66578     -925.91984     -6754.6719      4376.2048    
     49340   413.03291     -925.21393     -7838.3357      4380.6771    
     49350   402.96611     -925.04101     -8150.4023      4381.4437    
     49360   408.11995     -925.31082     -7703.6413      4378.3208    
     49370   381.65134     -924.70903     -6266.8066      4371.515     
     49380   371.11662     -924.53327     -4069.4316      4361.6969    
     49390   397.99425     -925.37337     -1413.89        4349.9063    
     49400   385.27609     -925.08583      1606.557       4337.4098    
     49410   367.19333     -924.61103      4513.3651      4325.6197    
     49420   413.19585     -925.89654      6730.381       4315.8754    
     49430   412.92089     -925.9024       8354.4156      4309.2161    
     49440   382.71629     -925.09253      9166.0231      4306.391     
     49450   407.72917     -925.83632      8756.4415      4307.7752    
     49460   418.10253     -926.19746      7370.6723      4313.2225    
     49470   391.06191     -925.53045      5351.9468      4322.1471    
     49480   404.36779     -925.9776       2699.4534      4333.648     
     49490   411.31475     -926.23188     -330.95524      4346.5205    
     49500   396.71703     -925.86668     -3366.0495      4359.3568    
     49510   393.12398     -925.78945     -6144.5142      4370.7053    
     49520   369.71015     -925.14971     -8105.7297      4379.2293    
     49530   370.27707     -925.17566     -9166.2231      4383.9477    
     49540   386.0721      -925.63729     -9336.6591      4384.3115    
     49550   365.98505     -925.11585     -8401.3357      4380.2261    
     49560   365.74159     -925.14626     -6579.1978      4372.1229    
     49570   387.1148      -925.76032     -4031.7293      4360.8764    
     49580   367.5171      -925.20181     -812.75366      4347.7174    
     49590   384.04952     -925.59942      2530.1536      4334.1646    
     49600   443.04437     -927.12664      5495.8663      4321.7794    
     49610   418.1677      -926.30303      7959.6078      4311.9421    
     49620   385.61827     -925.27216      9427.3021      4305.7663    
     49630   416.38064     -925.99631      9642.1356      4303.9137    
     49640   398.84749     -925.37382      8948.7558      4306.5088    
     49650   380.79712     -924.73913      7230.6069      4313.2453    
     49660   411.7392      -925.43695      4780.5781      4323.3723    
     49670   412.38377     -925.25729      2037.4047      4335.7966    
     49680   402.76567     -924.7802      -890.196        4349.2515    
     49690   416.03031     -924.92369     -3854.532       4362.3563    
     49700   405.0204      -924.39323     -6380.1518      4373.7034    
     49710   419.66498     -924.59759     -8296.9926      4382.0596    
     49720   435.17526     -924.86032     -9339.1331      4386.4858    
     49730   415.47692     -924.20064     -9261.6474      4386.4706    
     49740   405.92129     -923.87116     -8142.7587      4382.0428    
     49750   438.89893     -924.7507      -6257.7383      4373.7385    
     49760   430.75221     -924.50422     -3676.9141      4362.4851    
     49770   431.91805     -924.52486     -768.54101      4349.5221    
     49780   435.58189     -924.61         2339.774       4336.2467    
     49790   429.03283     -924.40903      5351.8308      4324.1169    
     49800   438.0522      -924.64883      7672.4256      4314.5076    
     49810   456.28341     -925.17892      8915.8655      4308.4599    
     49820   441.61319     -924.84564      9307.1579      4306.5409    
     49830   427.61212     -924.5783       8688.7256      4308.9108    
     49840   419.41702     -924.50269      7047.1931      4315.287     
     49850   415.72739     -924.56602      4638.5793      4324.9292    
     49860   399.78903     -924.2777       1949.2703      4336.7519    
     49870   408.4186      -924.64888     -1029.9583      4349.4954    
     49880   420.75874     -925.10365     -3913.1934      4361.766     
     49890   410.0222      -924.90645     -6251.9784      4372.1959    
     49900   392.31617     -924.50539     -7761.0146      4379.6636    
     49910   415.86338     -925.25626     -8674.0673      4383.4208    
     49920   417.82294     -925.4309      -8718.7392      4383.0426    
     49930   391.49957     -924.83044     -7627.9105      4378.5356    
     49940   410.66807     -925.49427     -5710.3515      4370.4387    
     49950   415.21033     -925.74639     -3251.4049      4359.6953    
     49960   391.78106     -925.19647     -543.3913       4347.4996    
     49970   406.2416      -925.66975      2153.2019      4335.1433    
     49980   404.9284      -925.68044      4921.5888      4323.9054    
     49990   400.6397      -925.59285      7136.7044      4315.0369    
     50000   421.9247      -926.22204      8247.9784      4309.5131    
Loop time of 11.6566 on 1 procs for 50000 steps with 216 atoms

Performance: 370.606 ns/day, 0.065 hours/ns, 4289.423 timesteps/s, 926.515 katom-step/s
99.2% CPU use with 1 MPI tasks x 1 OpenMP threads

MPI task timing breakdown:
Section |  min time  |  avg time  |  max time  |%varavg| %total
---------------------------------------------------------------
Pair    | 11.112     | 11.112     | 11.112     |   0.0 | 95.33
Neigh   | 0          | 0          | 0          |   0.0 |  0.00
Comm    | 0.13984    | 0.13984    | 0.13984    |   0.0 |  1.20
Output  | 0.036992   | 0.036992   | 0.036992   |   0.0 |  0.32
Modify  | 0.33296    | 0.33296    | 0.33296    |   0.0 |  2.86
Other   |            | 0.03467    |            |       |  0.30

Nlocal:            216 ave         216 max         216 min
Histogram: 1 0 0 0 0 0 0 0 0 0
Nghost:            950 ave         950 max         950 min
Histogram: 1 0 0 0 0 0 0 0 0 0
Neighs:              0 ave           0 max           0 min
Histogram: 1 0 0 0 0 0 0 0 0 0
FullNghs:         7344 ave        7344 max        7344 min
Histogram: 1 0 0 0 0 0 0 0 0 0

Total # of neighbors = 7344
Ave neighs/atom = 34
Neighbor list builds = 0
Dangerous builds = 0


min_style cg
minimize 1e-10 1e-10 5000 10000
Per MPI rank memory allocation (min/avg/max) = 5.612 | 5.612 | 5.612 Mbytes
   Step          Temp          PotEng         Press          Volume    
     50000   421.9247      -926.22204      8247.9784      4309.5131    
     50010   421.9247      -936.6758       6575.2243      4309.5131    
     50020   421.9247      -936.68783      6575.4502      4309.5131    
     50027   421.9247      -936.68785      6575.4528      4309.5131    
Loop time of 0.0070494 on 1 procs for 27 steps with 216 atoms

99.6% CPU use with 1 MPI tasks x 1 OpenMP threads

Minimization stats:
  Stopping criterion = energy tolerance
  Energy initial, next-to-last, final = 
     -926.222035982638  -936.687850845964  -936.687850936705
  Force two-norm initial, final = 19.024075 0.0010363163
  Force max component initial, final = 2.3664457 0.00017257925
  Final line search alpha, max atom move = 1 0.00017257925
  Iterations, force evaluations = 27 54

MPI task timing breakdown:
Section |  min time  |  avg time  |  max time  |%varavg| %total
---------------------------------------------------------------
Pair    | 0.0064782  | 0.0064782  | 0.0064782  |   0.0 | 91.90
Neigh   | 0          | 0          | 0          |   0.0 |  0.00
Comm    | 0.00015103 | 0.00015103 | 0.00015103 |   0.0 |  2.14
Output  | 1.1301e-05 | 1.1301e-05 | 1.1301e-05 |   0.0 |  0.16
Modify  | 0          | 0          | 0          |   0.0 |  0.00
Other   |            | 0.0004089  |            |       |  5.80

Nlocal:            216 ave         216 max         216 min
Histogram: 1 0 0 0 0 0 0 0 0 0
Nghost:            950 ave         950 max         950 min
Histogram: 1 0 0 0 0 0 0 0 0 0
Neighs:              0 ave           0 max           0 min
Histogram: 1 0 0 0 0 0 0 0 0 0
FullNghs:         7514 ave        7514 max        7514 min
Histogram: 1 0 0 0 0 0 0 0 0 0

Total # of neighbors = 7514
Ave neighs/atom = 34.787037
Neighbor list builds = 0
Dangerous builds = 0
variable teng equal "c_eatoms"
variable natoms equal "count(all)"
variable ecoh equal "v_teng/v_natoms"
variable lengthx equal lx/${xdim}
variable lengthx equal lx/3
variable lengthy equal ly/${ydim}
variable lengthy equal ly/3
variable lengthz equal lz/${zdim}
variable lengthz equal lz/3

print "cohesive energy: ${ecoh}"
cohesive energy: -4.33651782841066
print "x_length equals: ${lengthx}"
x_length equals: 5.4244388032318
print "y_length equals: ${lengthy}"
y_length equals: 5.4244388032318
print "z_length equals: ${lengthz}"
z_length equals: 5.4244388032318

variable lp_x equal ${lengthx}
variable lp_x equal 5.4244388032318
variable lp_y equal ${lengthy}
variable lp_y equal 5.4244388032318
variable lp_z equal ${lengthz}
variable lp_z equal 5.4244388032318

variable lp_avg equal "(v_lp_x + v_lp_y + v_lp_z) / 3"

print "lattice parameter equals ${lp_avg}"
lattice parameter equals 5.4244388032318
Total wall time: 0:00:11
