LAMMPS (30 Mar 2026)
OMP_NUM_THREADS environment is not set. Defaulting to 1 thread.
  using 1 OpenMP thread(s) per MPI task

# ------------------ Initialization ------------------
units           metal
boundary        p p p
atom_style      atomic

# ------------------ Geometry Generation -------------
# Silicon diamond cubic lattice constant is 5.431 Angstroms

variable pwd_path getenv PWD

variable structure_file string ../structures/si_structure.txt

read_data ../structures/si_structure.txt
Reading data file ...
  orthogonal box = (0 0 0) to (16.29 16.29 16.29)
  1 by 1 by 1 MPI processor grid
  reading atoms ...
  216 atoms
  read_data CPU = 0.001 seconds

# ------------------ Interatomic Potential -----------
# Using the standard Stillinger-Weber (SW) potential
pair_style      sw
pair_coeff      * * ../potentials/Si.sw Si
Reading sw potential file ../potentials/Si.sw with DATE: 2007-06-11


# ------------------ Compute -----------------
compute eng all pe/atom 	# a variable named 'eng' is defined to store the potential energy for each atom
compute eatoms all reduce sum c_eng  #a variable named 'eatoms' is defined to store the sum of all 'eng' values
compute new all temp


# ------------------ Energy Minimization -------------
# Relax the structure to remove any initial overlapping/strain
thermo          10
thermo_style    custom step temp pe press vol

minimize 1.0e-6 1.0e-6 5000 10000
Neighbor list info ...
  update: every = 1 steps, delay = 0 steps, check = yes
  max neighbors/atom: 2000, page size: 100000
  master list distance cutoff = 5.77118
  ghost atom cutoff = 5.77118
  binsize = 2.88559, bins = 6 6 6
  1 neighbor lists, perpetual/occasional/extra = 1 0 0
  (1) pair sw, perpetual
      attributes: full, newton on
      pair build: full/bin/atomonly
      stencil: full/bin/3d
      bin: standard
Per MPI rank memory allocation (min/avg/max) = 4.343 | 4.343 | 4.343 Mbytes
   Step          Temp          PotEng         Press          Volume    
         0   0             -936.70522      532.56802      4322.7812    
         1   0             -936.70522      532.56802      4322.7812    
Loop time of 0.000368308 on 1 procs for 1 steps with 216 atoms

97.5% CPU use with 1 MPI tasks x 1 OpenMP threads

Minimization stats:
  Stopping criterion = quadratic factors are zero
  Energy initial, next-to-last, final = 
     -936.705223045316  -936.705223045316  -936.705223045316
  Force two-norm initial, final = 1.1685261e-17 1.1685261e-17
  Force max component initial, final = 8.6736205e-19 8.6736205e-19
  Final line search alpha, max atom move = 1 8.6736205e-19
  Iterations, force evaluations = 1 2

MPI task timing breakdown:
Section |  min time  |  avg time  |  max time  |%varavg| %total
---------------------------------------------------------------
Pair    | 0.00034557 | 0.00034557 | 0.00034557 |   0.0 | 93.83
Neigh   | 0          | 0          | 0          |   0.0 |  0.00
Comm    | 8.796e-06  | 8.796e-06  | 8.796e-06  |   0.0 |  2.39
Output  | 0          | 0          | 0          |   0.0 |  0.00
Modify  | 0          | 0          | 0          |   0.0 |  0.00
Other   |            | 1.395e-05  |            |       |  3.79

Nlocal:            216 ave         216 max         216 min
Histogram: 1 0 0 0 0 0 0 0 0 0
Nghost:            950 ave         950 max         950 min
Histogram: 1 0 0 0 0 0 0 0 0 0
Neighs:              0 ave           0 max           0 min
Histogram: 1 0 0 0 0 0 0 0 0 0
FullNghs:         7344 ave        7344 max        7344 min
Histogram: 1 0 0 0 0 0 0 0 0 0

Total # of neighbors = 7344
Ave neighs/atom = 34
Neighbor list builds = 0
Dangerous builds = 0

# ------------------ Equilibration (NVT/NPT) ---------
reset_timestep  0
velocity all create ${temperature} 87287 loop geom
velocity all create 300 87287 loop geom

# Reference timestep for metal units with Silicon is typically 1-2 fs
timestep        0.001


# Tdamp - 100*Timestep
# Pdamp - 1000*Timestep
#
# Run NPT to fix temperature at 300K and pressure at 0 Bar
fix 1 all npt temp ${temperature} ${temperature} 0.1 iso ${pressure} ${pressure} 1.0
fix 1 all npt temp 300 ${temperature} 0.1 iso ${pressure} ${pressure} 1.0
fix 1 all npt temp 300 300 0.1 iso ${pressure} ${pressure} 1.0
fix 1 all npt temp 300 300 0.1 iso 0.0 ${pressure} 1.0
fix 1 all npt temp 300 300 0.1 iso 0.0 0.0 1.0

# Output settings

variable dump_path string "../results/lattice_parameter/si_out_${temperature}.dat"
../results/lattice_parameter/si_out_300.dat

dump 1 all custom 5000 ${dump_path} mass type xs ys zs
dump 1 all custom 5000 ../results/lattice_parameter/si_out_300.dat mass type xs ys zs

dump_modify 1 sort id

variable first_run_step equal ${steps}
variable first_run_step equal 50000

# Run the simulation
run ${first_run_step}
run 50000
Per MPI rank memory allocation (min/avg/max) = 3.218 | 3.218 | 3.218 Mbytes
   Step          Temp          PotEng         Press          Volume    
         0   300           -936.70522      2592.6296      4322.7812    
        10   162.14491     -932.86171      2709.6575      4323.6037    
        20   94.32248      -930.9527       1934.8386      4326.0702    
        30   184.98823     -933.39207      352.26883      4329.7024    
        40   115.43023     -931.32276     -465.70059      4333.6113    
        50   89.165155     -930.50881     -1164.535       4337.2393    
        60   193.84593     -933.28463     -2032.3712      4340.1266    
        70   150.74016     -931.93673     -2017.0988      4341.7957    
        80   134.07887     -931.37891     -1833.5936      4342.2063    
        90   213.45771     -933.45577     -1830.2836      4341.4513    
       100   163.69113     -931.92078     -1199.3526      4339.5878    
       110   144.7327      -931.2762      -591.90156      4336.9698    
       120   204.86102     -932.78601     -182.43867      4333.968     
       130   156.15079     -931.25253      795.34435      4330.8913    
       140   151.43728     -930.97937      1554.7903      4328.3017    
       150   225.07403     -932.83338      1720.5462      4326.6507    
       160   184.80105     -931.50553      2077.4363      4326.0938    
       170   168.98406     -930.90619      2127.5035      4326.8219    
       180   232.2544      -932.46963      1531.2419      4328.8473    
       190   196.30516     -931.25905      1008.4778      4331.8485    
       200   170.6949      -930.37986      230.47235      4335.4792    
       210   229.00735     -931.80259     -1015.2576      4339.2378    
       220   211.41629     -931.08715     -1785.0758      4342.3997    
       230   174.21364     -929.86817     -2100.3678      4344.4735    
       240   207.49062     -930.60277     -2396.3769      4345.2273    
       250   203.79417     -930.28641     -2126.0435      4344.5072    
       260   187.75751     -929.64694     -1310.4171      4342.48      
       270   243.05668     -930.97089     -550.29966      4339.6223    
       280   266.45289     -931.36853      281.35101      4336.4232    
       290   219.09496     -929.83085      1188.7254      4333.408     
       300   237.73458     -930.14724      1586.0409      4331.1077    
       310   263.24979     -930.6259       1746.8225      4329.7903    
       320   231.34072     -929.52114      1851.3836      4329.5689    
       330   231.8277      -929.33623      1567.3123      4330.4886    
       340   249.94529     -929.62445      1204.2585      4332.3944    
       350   240.9978      -929.15897      961.02535      4335.0769    
       360   286.37034     -930.19679      284.48117      4338.3517    
       370   319.12937     -930.85965     -596.91723      4341.8116    
       380   252.36709     -928.79316     -1170.0643      4344.9341    
       390   235.28489     -928.14573     -1802.1432      4347.3292    
       400   277.6961      -929.1248      -2330.0454      4348.603     
       410   268.94244     -928.66976     -2274.0683      4348.4473    
       420   263.06262     -928.31098     -1909.851       4346.8739    
       430   275.13988     -928.44745     -1262.9225      4344.1081    
       440   262.59162     -927.89983     -165.27584      4340.5708    
       450   308.92992     -928.98316      744.79635      4336.9112    
       460   324.60921     -929.20035      1553.7253      4333.7101    
       470   262.99597     -927.30782      2398.7116      4331.4854    
       480   304.25047     -928.28939      2665.8952      4330.7304    
       490   358.85666     -929.61959      2472.2566      4331.6261    
       500   304.15768     -927.94632      2055.2399      4334.0771    
       510   333.0376      -928.62733      861.1687       4337.7931    
       520   358.07082     -929.20406     -471.46001      4342.0693    
       530   241.04736     -925.86476     -1177.0251      4346.1166    
       540   265.77811     -926.47062     -2018.7368      4349.4344    
       550   375.37572     -929.39436     -2667.1984      4351.5045    
       560   290.24308     -926.92572     -2276.4625      4351.9642    
       570   272.82481     -926.36867     -1911.2361      4350.9854    
       580   397.68867     -929.74866     -1822.4067      4348.7765    
       590   322.96366     -927.61054     -777.8177       4345.4715    
       600   247.86376     -925.48983      386.41831      4341.6736    
       610   361.97309     -928.61523      836.26467      4338.0635    
       620   353.17058     -928.33529      1571.624       4334.9918    
       630   284.18295     -926.4124       2308.8317      4332.9027    
       640   343.57929     -928.06735      2297.223       4332.2139    
       650   338.99565     -927.96378      2119.8965      4332.9668    
       660   305.02997     -927.06277      1687.3248      4335.0499    
       670   343.9882      -928.20363      925.24503      4338.1946    
       680   331.57602     -927.93771      261.59515      4341.9598    
       690   341.03715     -928.29752     -780.08946      4345.9006    
       700   352.2768      -928.74374     -2029.8377      4349.3673    
       710   232.65643     -925.53917     -2492.0516      4351.6272    
       720   250.75107     -926.11388     -2762.6702      4352.3334    
       730   373.24809     -929.60772     -2757.9593      4351.3085    
       740   309.15224     -927.94942     -1677.8596      4348.5994    
       750   260.75509     -926.70191     -443.45624      4344.8251    
       760   368.33099     -929.79741      262.93475      4340.7197    
       770   354.57127     -929.5684       1237.1311      4336.7815    
       780   272.35863     -927.4275       2119.506       4333.6017    
       790   293.75843     -928.14724      2163.8298      4331.6901    
       800   284.41388     -928.00743      2020.758       4331.1245    
       810   278.82498     -927.95431      1787.48        4331.8268    
       820   314.84861     -929.06017      1291.4202      4333.6482    
       830   279.52206     -928.18083      836.07705      4336.3088    
       840   260.44395     -927.73051      159.02738      4339.5118    
       850   293.07725     -928.70329     -678.52842      4342.8387    
       860   292.98891     -928.76139     -1230.0812      4345.7892    
       870   290.8196      -928.75619     -1669.8847      4347.9983    
       880   304.34233     -929.18784     -2005.7847      4349.1775    
       890   283.94309     -928.67462     -1817.3976      4349.1324    
       900   292.58741     -928.96269     -1459.249       4347.9482    
       910   322.49836     -929.84496     -1184.1466      4345.8287    
       920   304.67127     -929.41039     -693.93353      4342.9607    
       930   267.9301      -928.44483     -55.113346      4339.6437    
       940   248.34131     -927.9368       473.08571      4336.2607    
       950   230.49348     -927.44867      1093.9905      4333.1579    
       960   252.67631     -928.04477      1744.3573      4330.7209    
       970   291.02957     -929.06462      2300.151       4329.3588    
       980   299.00834     -929.2303       2622.3559      4329.4227    
       990   287.76727     -928.86244      2473.7488      4331.1193    
      1000   312.28498     -929.48699      1552.0292      4334.3541    
      1010   296.70312     -928.99494      386.31515      4338.6009    
      1020   267.30223     -928.11866     -773.73795      4343.1487    
      1030   297.84383     -928.89444     -1844.5813      4347.2697    
      1040   311.88495     -929.20035     -2400.8299      4350.3031    
      1050   266.49195     -927.86075     -2396.7897      4351.8854    
      1060   301.9383      -928.76618     -2440.4886      4351.9617    
      1070   332.25847     -929.5185      -2274.0219      4350.5039    
      1080   262.68928     -927.51022     -1543.0662      4347.6248    
      1090   276.3345      -927.81603     -828.53575      4343.7359    
      1100   330.3726      -929.2204      -29.572228      4339.2871    
      1110   264.94716     -927.30685      1236.0431      4334.8037    
      1120   259.22822     -927.05818      2249.1345      4331.0384    
      1130   344.13518     -929.29864      2696.3089      4328.6179    
      1140   331.15525     -928.82335      2993.0207      4327.8664    
      1150   278.57053     -927.28283      2831.2432      4328.9701    
      1160   273.28257     -927.06206      2125.3198      4331.849     
      1170   305.9563      -927.88034      1200.8776      4336.1052    
      1180   352.6993      -929.08147      227.45762      4341.1883    
      1190   345.10098     -928.79198     -808.8492       4346.4966    
      1200   316.59766     -927.9502      -2033.7278      4351.368     
      1210   319.62026     -928           -3160.4139      4355.0284    
      1220   271.48482     -926.63455     -3528.2272      4356.7793    
      1230   287.14367     -927.04003     -3460.9693      4356.3309    
      1240   367.66628     -929.2456      -2960.6233      4353.6955    
      1250   338.67524     -928.4362      -1683.8537      4349.1871    
      1260   291.37549     -927.13547     -151.44824      4343.565     
      1270   355.38625     -928.93507      1030.3104      4337.7499    
      1280   325.60866     -928.14964      2223.3387      4332.5147    
      1290   258.17877     -926.31776      3027.1455      4328.5916    
      1300   291.57007     -927.27947      3114.3076      4326.4809    
      1310   292.03473     -927.32166      3033.7533      4326.2989    
      1320   293.39293     -927.38871      2693.5571      4328.0165    
      1330   313.24482     -927.97302      2078.8825      4331.4537    
      1340   298.28774     -927.59192      1303.2942      4336.2656    
      1350   338.98669     -928.7623       35.235653      4341.9681    
      1360   364.40191     -929.53657     -1256.6389      4347.8034    
      1370   290.46115     -927.5654      -2058.2452      4352.9858    
      1380   328.96081     -928.71885     -3167.5943      4356.9349    
      1390   377.95209     -930.2084      -4096.8427      4358.946     
      1400   264.1146      -927.1889      -3898.7477      4358.4467    
      1410   250.77969     -926.91758     -3410.2319      4355.463     
      1420   347.07416     -929.70446     -2771.0262      4350.2573    
      1430   264.76821     -927.52922     -974.91268      4343.2744    
      1440   221.86646     -926.39749      954.01788      4335.5635    
      1450   308.89725     -928.85127      2399.3696      4328.3012    
      1460   302.16137     -928.69519      3942.5048      4322.4431    
      1470   263.46254     -927.64463      5138.7466      4318.9515    
      1480   311.42707     -929.00407      5238.4108      4318.568     
      1490   308.50107     -928.96073      4637.6869      4321.4434    
      1500   294.70017     -928.62339      3218.2074      4327.2608    
      1510   317.4806      -929.30378      1069.5874      4335.198     
      1520   273.07674     -928.10827     -891.3652       4344.0029    
      1530   244.09606     -927.31315     -2633.8132      4352.4459    
      1540   328.68114     -929.65415     -4351.8149      4359.386     
      1550   351.44762     -930.29113     -5232.7182      4363.7351    
      1560   287.16992     -928.53883     -5231.81        4364.8694    
      1570   284.94082     -928.51996     -4966.3201      4362.6822    
      1580   291.22336     -928.7395      -4024.6839      4357.3132    
      1590   263.2245      -927.99829     -2310.1122      4349.3213    
      1600   257.33438     -927.84711     -384.29077      4339.7301    
      1610   273.42976     -928.27645      1719.744       4329.7421    
      1620   253.08126     -927.66205      4110.8041      4320.6913    
      1630   252.0277      -927.55969      5981.9852      4314.0422    
      1640   292.916       -928.60316      6879.1281      4310.9753    
      1650   317.52851     -929.19197      6937.9852      4312.1227    
      1660   329.28977     -929.44406      5936.5424      4317.5955    
      1670   341.04523     -929.71717      3775.2848      4326.8631    
      1680   334.05287     -929.48136      878.76766      4338.6876    
      1690   311.63473     -928.81585     -2408.0162      4351.3138    
      1700   280.58985     -927.8977      -5483.1231      4362.6875    
      1710   235.80008     -926.58419     -7459.5858      4370.842     
      1720   243.79108     -926.73082     -8173.0412      4374.4266    
      1730   303.30931     -928.29901     -7638.9836      4372.8803    
      1740   309.1193      -928.37529     -5620.0705      4366.48      
      1750   319.93317     -928.59846     -2940.1617      4356.4117    
      1760   383.18187     -930.27538     -434.02692      4344.3051    
      1770   339.61374     -929.00587      2250.7604      4331.7659    
      1780   235.47566     -926.06185      4806.9045      4320.4719    
      1790   284.11631     -927.34855      6265.2745      4311.9743    
      1800   295.15688     -927.57743      7303.2795      4307.2563    
      1810   232.05491     -925.76182      7952.9019      4307.0132    
      1820   329.64154     -928.41689      7075.0374      4311.6535    
      1830   410.53611     -930.60778      5029.9863      4320.7535    
      1840   308.49284     -927.766        2487.8311      4333.175     
      1850   303.54473     -927.62578     -1013.9452      4347.3524    
      1860   352.45215     -928.95743     -4536.085       4361.1478    
      1870   296.57877     -927.37809     -7030.6302      4372.3436    
      1880   287.3332      -927.10454     -8727.5833      4379.2429    
      1890   313.35001     -927.83448     -9225.6943      4380.6879    
      1900   294.38663     -927.34616     -8072.6718      4376.3045    
      1910   325.84007     -928.28272     -5830.1289      4366.7381    
      1920   324.01652     -928.30378     -2691.7354      4353.3915    
      1930   288.13745     -927.35873      879.94634      4338.2349    
      1940   334.71484     -928.68478      4139.8139      4323.4865    
      1950   316.82018     -928.22454      7074.7641      4311.2013    
      1960   268.44907     -926.92159      9048.9972      4303.1775    
      1970   325.7057      -928.59303      9295.4808      4300.61      
      1980   286.09658     -927.6302       8503.1922      4303.7432    
      1990   230.42182     -926.21965      6697.4005      4312.1608    
      2000   341.53195     -929.45796      3515.1345      4324.7991    
      2010   340.90035     -929.62726      136.42341      4339.8125    
      2020   253.93815     -927.36185     -2980.933       4355.1259    
      2030   312.63251     -929.11252     -6095.4354      4368.7208    
      2040   340.42813     -930.03384     -8429.7247      4378.6057    
      2050   294.56548     -928.91771     -9657.4603      4383.2309    
      2060   291.75692     -929.00063     -9781.2663      4381.7397    
      2070   252.20511     -928.05482     -8293.6022      4374.0477    
      2080   217.53475     -927.19853     -5412.8364      4361.0897    
      2090   253.20393     -928.24196     -1657.0656      4344.6938    
      2100   255.42348     -928.28629      2771.8171      4327.2634    
      2110   289.09421     -929.14742      6802.9153      4311.5319    
      2120   356.38551     -930.93228      9586.3135      4299.9486    
      2130   284.57303     -928.8926       11170.936      4294.2207    
      2140   247.24226     -927.85369      10782.467      4295.2681    
      2150   311.26215     -929.65497      8474.9172      4302.8808    
      2160   273.92074     -928.64178      5486.0525      4315.7668    
      2170   257.85022     -928.1985       1829.5655      4332.1222    
      2180   306.8306      -929.50679     -2339.5472      4349.6936    
      2190   276.07057     -928.55186     -6001.7043      4365.9005    
      2200   261.60392     -928.03381     -8886.8813      4378.3795    
      2210   294.85266     -928.84155     -10624.068      4385.2532    
      2220   253.13375     -927.59675     -10500.545      4385.4198    
      2230   258.12703     -927.6858      -8888.0904      4378.9375    
      2240   342.15629     -929.96113     -6166.8723      4366.8569    
      2250   304.99007     -928.8582      -2170.7143      4350.9928    
      2260   265.07426     -927.66621      1986.9232      4333.8681    
      2270   350.27494     -929.90868      5285.7927      4318.0565    
      2280   338.77267     -929.46018      8134.0458      4305.6247    
      2290   242.3504      -926.69299      9968.0318      4298.2493    
      2300   262.19606     -927.18578      10018.751      4296.9583    
      2310   319.94185     -928.74261      8815.4057      4301.7795    
      2320   292.83474     -927.96526      6773.9911      4311.9932    
      2330   296.23181     -928.04237      3426.8485      4326.3194    
      2340   314.93818     -928.5128      -596.42021      4342.7233    
      2350   285.58347     -927.6158      -4257.0431      4358.7317    
      2360   286.07549     -927.5278      -7232.2618      4372.0222    
      2370   329.49251     -928.63047     -9191.4843      4380.6974    
      2380   317.53424     -928.23191     -9675.2564      4383.5354    
      2390   291.78522     -927.50101     -8878.7512      4380.2455    
      2400   296.42218     -927.63949     -6850.9733      4371.4016    
      2410   321.9371      -928.35673     -3790.0444      4358.3694    
      2420   340.16954     -928.85788     -249.44883      4343.138     
      2430   337.9711      -928.78289      3209.9309      4327.9503    
      2440   299.96004     -927.70534      6277.8883      4314.9511    
      2450   308.1217      -927.91316      8260.8008      4305.9517    
      2460   318.70919     -928.21577      8992.485       4302.0895    
      2470   268.94717     -926.8726       8624.3323      4303.7499    
      2480   274.78268     -927.08553      6824.6565      4310.6305    
      2490   330.6035      -928.68742      3997.219       4321.6113    
      2500   288.27727     -927.55232      1132.6495      4334.9839    
      2510   268.9092      -927.02614     -1839.6812      4348.9397    
      2520   346.4327      -929.16611     -4821.3455      4361.603     
      2530   338.02488     -928.9337      -6856.979       4371.1426    
      2540   253.66658     -926.61248     -7735.2516      4376.2928    
      2550   305.17149     -928.08464     -7970.0447      4376.4991    
      2560   354.42344     -929.53872     -7059.6529      4371.713     
      2570   301.1274      -928.18806     -4895.7465      4362.6073    
      2580   300.50881     -928.30981     -2274.8589      4350.5925    
      2590   331.61639     -929.33226      551.23488      4337.3735    
      2600   283.47805     -928.15381      3567.5614      4324.7513    
      2610   261.15972     -927.6608       5989.0592      4314.5354    
      2620   279.99903     -928.30494      7407.3777      4308.1411    
      2630   273.12973     -928.2376       7801.2615      4306.3593    
      2640   282.45457     -928.62044      7031.0153      4309.3434    
      2650   294.32941     -929.07644      5316.7139      4316.5693    
      2660   270.2582      -928.51158      2992.8177      4326.9571    
      2670   281.8495      -928.90189      122.34326      4339.0377    
      2680   288.18407     -929.11065     -2710.373       4351.0371    
      2690   276.51115     -928.79038     -5124.7018      4361.1918    
      2700   284.31031     -928.99943     -6877.4494      4368.0021    
      2710   251.83545     -928.08997     -7295.9182      4370.4371    
      2720   233.23952     -927.56374     -6431.0784      4368.2952    
      2730   325.76017     -930.11587     -4986.9064      4362.1649    
      2740   354.93547     -930.91016     -2851.1923      4353.0551    
      2750   273.66255     -928.64793     -226.50544      4342.3713    
      2760   277.15053     -928.72589      1928.9732      4331.7337    
      2770   281.08012     -928.79239      3750.1405      4322.4923    
      2780   237.49728     -927.52411      5316.5186      4315.7432    
      2790   282.15771     -928.69821      6039.5671      4312.3549    
      2800   305.56816     -929.27466      6100.7417      4312.7171    
      2810   268.53986     -928.18821      5444.0039      4316.8007    
      2820   299.9527      -929.0089       3674.7229      4324.1225    
      2830   295.01938     -928.80729      1394.535       4333.5861    
      2840   229.73144     -926.9223      -952.2712       4343.7761    
      2850   282.17003     -928.28492     -3432.9179      4353.2042    
      2860   319.72585     -929.20443     -5044.4184      4360.3798    
      2870   268.51212     -927.68062     -5431.6231      4364.3364    
      2880   301.25721     -928.51256     -5421.1204      4364.8244    
      2890   344.81454     -929.65678     -4867.8529      4361.9218    
      2900   302.26468     -928.44139     -3397.6994      4356.0677    
      2910   286.87323     -927.99367     -1494.4803      4348.2203    
      2920   326.77818     -929.0754       432.33403      4339.5941    
      2930   332.68343     -929.21503      2312.8444      4331.4081    
      2940   320.48649     -928.86714      3745.0278      4324.7946    
      2950   290.26122     -928.0288       4557.4847      4320.5943    
      2960   265.10564     -927.33051      4648.8395      4319.2525    
      2970   278.37269     -927.69541      3967.5182      4320.7678    
      2980   249.38862     -926.87628      2992.1854      4324.7041    
      2990   219.70565     -926.01997      1833.6303      4330.43      
      3000   295.45655     -928.0615       466.73215      4337.203     
      3010   369.83546     -930.03897     -726.63519      4344.184     
      3020   334.14059     -928.9867      -1652.4274      4350.6338    
      3030   325.17406     -928.70721     -2836.3546      4355.9444    
      3040   367.14259     -929.86666     -3993.0594      4359.3995    
      3050   308.17039     -928.25487     -4295.4685      4360.3453    
      3060   253.17186     -926.75713     -4036.3195      4358.6069    
      3070   305.50028     -928.23483     -3456.8022      4354.3743    
      3080   306.97098     -928.29698     -2033.9955      4348.0914    
      3090   277.45689     -927.49128     -127.58105      4340.667     
      3100   322.18494     -928.7374       1616.2294      4333.2766    
      3110   330.68329     -928.98187      3105.373       4327.0007    
      3120   264.36664     -927.15327      4160.9613      4322.7323    
      3130   271.03129     -927.3463       4357.4662      4321.0605    
      3140   310.22493     -928.43808      4018.6775      4322.0885    
      3150   304.24494     -928.28061      3320.5668      4325.5819    
      3160   287.52755     -927.82868      2225.9998      4331.0808    
      3170   294.02613     -928.01382      801.30058      4337.8932    
      3180   328.84132     -928.97769     -977.57574      4345.1178    
      3190   335.51624     -929.16934     -2677.7994      4351.66      
      3200   274.0107      -927.47736     -3650.879       4356.496     
      3210   283.62351     -927.76145     -4223.0413      4359.0026    
      3220   322.36687     -928.86243     -4264.7616      4358.85      
      3230   289.04999     -927.97594     -3375.45        4356.0697    
      3240   303.40981     -928.42095     -2207.869       4351.2171    
      3250   362.38844     -930.13118     -1124.8482      4345.0339    
      3260   298.47031     -928.46231      349.90819      4338.2524    
      3270   228.64046     -926.61136      1761.1046      4331.7734    
      3280   267.29655     -927.75764      2656.244       4326.4398    
      3290   286.52506     -928.36473      3611.472       4322.8275    
      3300   277.58818     -928.18823      4400.6553      4321.4941    
      3310   323.03655     -929.53638      4186.5074      4322.8536    
      3320   324.64626     -929.6961       3250.5052      4326.7717    
      3330   269.12498     -928.26822      1886.2783      4332.6687    
      3340   277.82602     -928.6041      -59.253266      4339.6719    
      3350   287.08716     -928.94252     -1918.016       4346.5981    
      3360   243.27402     -927.78168     -3121.588       4352.313     
      3370   261.94083     -928.33281     -3968.8187      4356.0408    
      3380   307.72233     -929.63267     -4241.855       4357.2712    
      3390   275.67768     -928.77187     -3642.1289      4355.8701    
      3400   275.32413     -928.78503     -2743.5121      4352.2022    
      3410   322.4143      -930.11119     -1584.6318      4346.8557    
      3420   295.7882      -929.38918      51.246394      4340.5942    
      3430   270.0841      -928.68386      1414.7224      4334.4076    
      3440   298.73373     -929.47838      2204.5907      4329.1273    
      3450   258.03402     -928.33625      2995.7084      4325.2713    
      3460   226.22142     -927.42527      3404.7273      4323.2929    
      3470   279.73439     -928.85977      3128.0965      4323.4091    
      3480   258.41753     -928.187        2956.5435      4325.4872    
      3490   249.05582     -927.8349       2512.164       4329.388     
      3500   339.46492     -930.21431      1328.4789      4334.8018    
      3510   347.15332     -930.27352      95.507128      4341.0319    
      3520   284.45972     -928.41375     -1197.2056      4347.3031    
      3530   298.52553     -928.69807     -2922.4478      4352.7731    
      3540   276.61014     -927.97784     -4096.3694      4356.4139    
      3550   253.53016     -927.2377      -4383.0455      4357.5035    
      3560   303.65675     -928.52845     -4042.2527      4355.8523    
      3570   292.0969      -928.1071      -2769.9977      4351.7136    
      3580   262.44675     -927.20007     -988.02337      4345.8869    
      3590   351.07028     -929.57549      395.07283      4339.4508    
      3600   359.56733     -929.74005      1839.5735      4333.3116    
      3610   272.94554     -927.29736      3179.2462      4328.3611    
      3620   319.8042      -928.57395      3423.6687      4325.3603    
      3630   332.07446     -928.90191      3323.7701      4324.4962    
      3640   214.42156     -925.62755      3371.6111      4325.7263    
      3650   251.72902     -926.64444      2606.3172      4329.0135    
      3660   374.14545     -929.99998      1315.0723      4333.8958    
      3670   318.43611     -928.42574      467.38118      4339.6287    
      3680   272.0692      -927.12677     -674.08456      4345.6333    
      3690   354.90221     -929.41288     -2320.1442      4351.1754    
      3700   346.55556     -929.18436     -3299.45        4355.2888    
      3710   282.82701     -927.43888     -3683.0283      4357.3451    
      3720   297.66071     -927.87888     -3930.705       4357.0743    
      3730   297.73792     -927.91147     -3546.5899      4354.3583    
      3740   259.724       -926.88032     -2375.7165      4349.4606    
      3750   270.32197     -927.18183     -854.75938      4343.1057    
      3760   310.32994     -928.27934      882.56522      4336.2571    
      3770   335.64573     -928.96541      2578.6839      4329.9924    
      3780   325.06345     -928.66845      3952.4689      4325.3533    
      3790   328.40673     -928.78057      4595.6703      4323.1614    
      3800   333.45389     -928.96753      4369.0876      4323.8003    
      3810   314.55233     -928.51563      3354.4879      4327.1281    
      3820   288.95155     -927.88348      1771.6443      4332.5251    
      3830   299.7297      -928.25864     -138.8928       4339.0143    
      3840   280.24211     -927.78644     -1722.1799      4345.4368    
      3850   246.013       -926.88494     -2713.1207      4350.8063    
      3860   272.75033     -927.65979     -3263.8472      4354.4851    
      3870   319.45248     -928.98892     -3568.155       4356.1125    
      3880   318.23419     -929.00479     -3572.0287      4355.5007    
      3890   282.13017     -928.06581     -3023.5523      4352.6671    
      3900   259.6682      -927.49842     -1918.8522      4347.9671    
      3910   290.46534     -928.39896     -545.37646      4342.0895    
      3920   323.44771     -929.36097      1003.8515      4335.9017    
      3930   318.82074     -929.29294      2563.5978      4330.3696    
      3940   325.1275      -929.55261      3553.1579      4326.4308    
      3950   326.4481      -929.71518      3741.5114      4324.6816    
      3960   260.35779     -928.02016      3402.3746      4325.2508    
      3970   239.31979     -927.55367      2459.7979      4327.9158    
      3980   275.09696     -928.65734      1197.8293      4332.1043    
      3990   265.06016     -928.47712      181.18718      4337.0633    
      4000   269.08099     -928.66818     -745.2127       4342.1457    
      4010   290.7957      -929.343       -1728.4059      4346.7589    
      4020   267.27022     -928.74883     -2496.6135      4350.3005    
      4030   269.72133     -928.86307     -3109.816       4352.2753    
      4040   276.92233     -929.10027     -3284.8979      4352.312     
      4050   254.49513     -928.50243     -2757.6721      4350.3169    
      4060   265.67872     -928.82083     -1751.4145      4346.6144    
      4070   301.83763     -929.81627     -547.60984      4341.8289    
      4080   287.97503     -929.41127      768.64552      4336.7208    
      4090   273.08572     -928.9686       1855.4067      4332.0965    
      4100   286.25121     -929.28994      2606.5365      4328.6289    
      4110   293.46501     -929.43155      2990.485       4326.782     
      4120   283.5634      -929.08861      2866.5809      4326.7835    
      4130   266.26568     -928.52722      2369.5347      4328.5624    
      4140   269.10686     -928.50142      1680.3248      4331.8204    
      4150   288.31443     -928.89315      763.2089       4336.1264    
      4160   280.02319     -928.49191     -299.80581      4340.9133    
      4170   278.54549     -928.26938     -1420.6728      4345.518     
      4180   302.24743     -928.73723     -2355.8021      4349.2448    
      4190   282.85803     -928.02485     -2745.2306      4351.5227    
      4200   272.15935     -927.59188     -2777.4173      4352.09      
      4210   308.74311     -928.49186     -2558.1727      4350.9186    
      4220   306.28171     -928.33061     -1803.5878      4348.1673    
      4230   276.48278     -927.43595     -712.62916      4344.3049    
      4240   323.88727     -928.69495      124.09936      4339.9852    
      4250   341.6676      -929.14282      972.20393      4335.7536    
      4260   273.27626     -927.21578      2049.0028      4332.1567    
      4270   298.23166     -927.88343      2659.4834      4329.8225    
      4280   373.62692     -929.95709      2760.3069      4329.1311    
      4290   333.41566     -928.85535      2745.0596      4330.1705    
      4300   272.98162     -927.20679      2255.7607      4332.9129    
      4310   316.12998     -928.43336      900.62698      4337.0299    
      4320   314.32691     -928.41184     -558.38821      4341.7232    
      4330   263.55794     -927.02606     -1725.25        4346.0953    
      4340   267.21453     -927.13655     -2602.5495      4349.4053    
      4350   296.84493     -927.95585     -2942.2638      4351.1097    
      4360   295.09504     -927.90093     -2638.1312      4350.9965    
      4370   282.25925     -927.53689     -1964.2991      4349.2408    
      4380   300.9071      -928.04044     -1199.0006      4346.2536    
      4390   342.70877     -929.18772     -356.71596      4342.5176    
      4400   325.63622     -928.71527      771.69156      4338.5804    
      4410   293.21169     -927.82712      1745.0241      4335.1247    
      4420   326.40706     -928.76638      2134.0026      4332.7355    
      4430   354.1128      -929.57546      2173.7342      4331.6702    
      4440   311.26982     -928.45262      2087.7389      4331.9688    
      4450   287.92405     -927.87871      1519.6142      4333.5556    
      4460   280.62327     -927.74572      661.5854       4336.0897    
      4470   268.12987     -927.45546     -44.859597      4339.06      
      4480   283.63815     -927.93043     -567.70499      4342.0249    
      4490   311.29922     -928.74067     -1041.3262      4344.6469    
      4500   308.93234     -928.72408     -1466.1024      4346.6268    
      4510   284.44668     -928.09667     -1801.3258      4347.6972    
      4520   269.7689      -927.73382     -2002.0083      4347.6441    
      4530   285.56862     -928.20963     -1894.4676      4346.3478    
      4540   278.91304     -928.05502     -1227.0524      4343.889     
      4550   264.23883     -927.66337     -81.623617      4340.6845    
      4560   320.92802     -929.24327      941.16697      4337.421     
      4570   351.36893     -930.105        1668.3215      4334.7336    
      4580   305.35893     -928.8663       2092.6012      4333.0809    
      4590   308.63816     -929.01082      1975.2585      4332.7133    
      4600   311.87834     -929.16894      1555.6768      4333.5756    
      4610   269.15575     -928.05285      943.07021      4335.4138    
      4620   269.4149      -928.12021      117.39494      4337.8437    
      4630   283.10122     -928.55476     -569.96012      4340.3689    
      4640   257.62312     -927.88873     -966.24582      4342.5671    
      4650   279.93508     -928.54064     -1340.9652      4344.1671    
      4660   269.5951      -928.2758      -1406.0418      4344.9497    
      4670   246.01881     -927.62643     -1204.0149      4344.8678    
      4680   307.58741     -929.326       -993.42359      4344.0288    
      4690   330.53186     -929.94622     -465.22283      4342.5856    
      4700   298.67113     -929.05421      103.14671      4340.8539    
      4710   302.18138     -929.15036      236.62205      4339.1612    
      4720   274.92236     -928.38764      360.80611      4337.619     
      4730   253.34156     -927.76929      568.72998      4336.3096    
      4740   291.50541     -928.78952      708.1702       4335.3522    
      4750   277.37605     -928.33437      1051.72        4334.8557    
      4760   283.03889     -928.41515      1198.0958      4335.0123    
      4770   338.20577     -929.84841      1025.7189      4335.9089    
      4780   283.49138     -928.22559      996.22671      4337.4739    
      4790   281.18757     -928.06678      448.34476      4339.65      
      4800   365.04443     -930.27565     -642.28826      4342.0921    
      4810   281.43651     -927.84228     -1155.3161      4344.1847    
      4820   205.61388     -925.65261     -1407.6023      4345.577     
      4830   304.86698     -928.2955      -1656.6919      4346.0869    
      4840   323.99877     -928.67254     -1173.9854      4345.6018    
      4850   298.67385     -927.84381     -529.04215      4344.388     
      4860   363.71946     -929.54169     -383.24449      4342.8083    
      4870   331.57051     -928.56766      18.906109      4341.0038    
      4880   248.54789     -926.21241      531.88321      4339.2171    
      4890   296.28941     -927.48739      562.65079      4337.731     
      4900   325.08505     -928.22361      780.10616      4336.6098    
      4910   296.50106     -927.3792       1271.7606      4335.9973    
      4920   328.79799     -928.23707      1367.7535      4336.1633    
      4930   351.14202     -928.83297      1194.9549      4337.1847    
      4940   333.85892     -928.35638      761.47662      4338.9595    
      4950   330.61411     -928.29366     -71.815821      4341.2082    
      4960   295.20881     -927.34711     -713.76632      4343.4451    
      4970   280.82215     -926.97764     -1101.1904      4345.2663    
      4980   322.69061     -928.17014     -1419.7597      4346.4089    
      4990   299.08111     -927.54913     -1198.9789      4346.6992    
      5000   283.70103     -927.15268     -895.75855      4346.2438    
      5010   356.54354     -929.21495     -1069.7497      4345.1942    
      5020   335.22438     -928.69254     -911.3427       4343.4885    
      5030   236.68095     -926.01891     -154.23551      4341.2393    
      5040   286.38034     -927.44239      332.81622      4338.8645    
      5050   349.34928     -929.23983      818.75463      4336.6886    
      5060   306.41933     -928.1119       1695.0796      4335.0472    
      5070   323.60467     -928.66512      1927.433       4334.4297    
      5080   357.42862     -929.71228      1424.5387      4334.9866    
      5090   298.21999     -928.19725      865.80805      4336.4518    
      5100   252.46734     -927.03182      218.76081      4338.4755    
      5110   277.72019     -927.81777     -480.2515       4340.6548    
      5120   287.54457     -928.16356     -854.36701      4342.5734    
      5130   282.20326     -928.0767      -1059.4285      4343.9809    
      5140   289.80025     -928.33883     -1172.1915      4344.7396    
      5150   300.4676      -928.68003     -1035.058       4344.7829    
      5160   308.82549     -928.95558     -767.66581      4344.185     
      5170   319.74654     -929.30659     -577.67294      4343.0973    
      5180   313.51996     -929.18798     -257.67869      4341.6498    
      5190   287.27188     -928.50992      193.19102      4340.0423    
      5200   282.24614     -928.40859      443.9712       4338.538     
      5210   291.30208     -928.68794      471.21377      4337.2945    
      5220   264.42177     -927.95616      456.4572       4336.3423    
      5230   247.49467     -927.48311      428.78018      4335.673     
      5240   264.81306     -927.94146      615.65343      4335.2852    
      5250   287.89072     -928.54565      1005.4241      4335.2995    
      5260   309.72646     -929.11394      1100.9276      4335.9363    
      5270   323.70024     -929.47552      834.73503      4337.2592    
      5280   295.73559     -928.68465      528.47001      4339.1285    
      5290   298.90177     -928.76303     -45.824257      4341.3411    
      5300   317.12201     -929.26184     -818.04863      4343.5417    
      5310   281.03462     -928.25459     -1337.2267      4345.2685    
      5320   269.90547     -927.93578     -1623.6844      4346.1831    
      5330   286.09331     -928.36585     -1538.6052      4346.1031    
      5340   278.41655     -928.12419     -1019.9584      4345.0779    
      5350   308.10042     -928.91641     -539.13954      4343.3984    
      5360   327.81678     -929.43505     -155.90592      4341.3615    
      5370   282.46519     -928.15543      250.86611      4339.2153    
      5380   293.92409     -928.45502      404.89266      4337.1962    
      5390   297.95204     -928.54421      623.09731      4335.4213    
      5400   223.95013     -926.45769      1150.3345      4334.047     
      5410   255.00446     -927.27252      1331.9396      4333.3655    
      5420   330.95022     -929.30135      1346.894       4333.5124    
      5430   303.50224     -928.45864      1529.2675      4334.5281    
      5440   297.36015     -928.22373      1355.3528      4336.5068    
      5450   357.44164     -929.83044      575.29471      4339.3356    
      5460   338.6383      -929.266       -221.56043      4342.5718    
      5470   303.02313     -928.26087     -995.90659      4345.7148    
      5480   298.57606     -928.12667     -1691.2269      4348.275     
      5490   298.79328     -928.12099     -2176.7104      4349.8102    
      5500   296.28836     -928.04128     -2426.9364      4349.9987    
      5510   266.99472     -927.2142      -2239.6169      4348.6775    
      5520   274.14185     -927.3877      -1608.5564      4345.9484    
      5530   325.41302     -928.77279     -633.59395      4342.1905    
      5540   301.04662     -928.05388      680.2176       4338.0156    
      5550   275.42452     -927.30055      1719.1863      4334.2132    
      5560   327.70409     -928.70188      2175.7593      4331.4233    
      5570   319.80724     -928.43127      2496.4169      4329.9728    
      5580   278.4403      -927.24177      2516.1611      4330.0676    
      5590   314.39412     -928.19637      1954.2067      4331.7206    
      5600   325.21151     -928.44453      1348.6698      4334.6337    
      5610   305.32219     -927.84486      796.78405      4338.4492    
      5620   341.77044     -928.81096     -105.98678      4342.8072    
      5630   354.30028     -929.12093     -1160.5372      4347.1578    
      5640   297.28102     -927.52018     -2055.0644      4350.8488    
      5650   275.9666      -926.9149      -2845.548       4353.2931    
      5660   305.25692     -927.70512     -3193.536       4353.9884    
      5670   331.21563     -928.40069     -2876.697       4352.7006    
      5680   322.09485     -928.13384     -1992.6946      4349.6024    
      5690   300.76181     -927.53729     -802.97725      4345.2221    
      5700   309.46932     -927.77542      259.29264      4340.2763    
      5710   318.53384     -928.0257       1103.992       4335.4273    
      5720   287.28625     -927.16081      1980.2525      4331.2239    
      5730   268.48475     -926.63517      2782.0286      4328.218     
      5740   311.86126     -927.82863      3151.81        4326.9044    
      5750   332.99284     -928.40895      3209.0613      4327.5467    
      5760   317.05399     -927.97826      2923.0193      4330.2093    
      5770   346.28512     -928.82247      1839.6284      4334.7162    
      5780   364.51926     -929.39553      249.55576      4340.4322    
      5790   289.66994     -927.40417     -1119.109       4346.4159    
      5800   267.00894     -926.84568     -2433.6871      4351.786     
      5810   324.07933     -928.50338     -3550.6233      4355.7       
      5820   315.09475     -928.34293     -3840.5033      4357.46      
      5830   311.84132     -928.35461     -3567.9412      4356.8298    
      5840   336.19727     -929.15685     -3013.8213      4353.9343    
      5850   288.0607      -927.95345     -1952.1322      4349.1172    
      5860   256.9031      -927.1895      -729.66869      4343.0124    
      5870   302.9867      -928.55634      401.95194      4336.3657    
      5880   274.68623     -927.84316      1933.7718      4329.9218    
      5890   248.09524     -927.14704      3406.1226      4324.6168    
      5900   298.10456     -928.56479      4218.0096      4321.3513    
      5910   295.8594      -928.53107      4549.7235      4320.6724    
      5920   274.77582     -927.97415      4251.5544      4322.8125    
      5930   324.76355     -929.39293      3137.6682      4327.6172    
      5940   347.82936     -930.07778      1606.2931      4334.4579    
      5950   306.43419     -928.98549     -122.55939      4342.4181    
      5960   293.67223     -928.68266     -2089.5541      4350.4159    
      5970   300.77023     -928.92285     -3851.6497      4357.2228    
      5980   297.31119     -928.86998     -4980.2247      4361.7127    
      5990   283.81396     -928.54351     -5453.1479      4363.1226    
      6000   261.86129     -927.98171     -5290.145       4361.1028    
      6010   243.16615     -927.50054     -4302.8813      4355.7277    
      6020   225.67317     -927.02569     -2298.1597      4347.6089    
      6030   265.02547     -928.08948      236.4074       4337.9728    
      6040   331.74846     -929.87082      2716.6699      4328.3819    
      6050   323.4243      -929.55725      4905.1124      4320.3893    
      6060   290.98139     -928.58932      6191.1269      4315.3398    
      6070   308.30459     -929.01576      6266.7079      4314.0439    
      6080   309.80116     -929.01309      5481.6316      4316.6127    
      6090   264.0527      -927.70597      4070.0767      4322.6253    
      6100   278.17635     -928.04852      1925.554       4331.2445    
      6110   312.21237     -928.90478     -392.94412      4341.1996    
      6120   311.95718     -928.78371     -2414.2518      4351.0712    
      6130   299.59899     -928.31766     -4149.5955      4359.5639    
      6140   305.96419     -928.36636     -5595.3981      4365.5391    
      6150   308.70094     -928.31498     -6402.414       4368.0476    
      6160   283.73388     -927.50979     -6139.9258      4366.5494    
      6170   269.21366     -927.00499     -4751.0567      4361.1748    
      6180   304.62224     -927.87188     -2693.5382      4352.7577    
      6190   354.47507     -929.11703     -444.66736      4342.5669    
      6200   319.27844     -928.01324      2001.8127      4332.0271    
      6210   282.47495     -926.88815      4260.8898      4322.6565    
      6220   318.45477     -927.79019      5837.3831      4315.8443    
      6230   321.1723      -927.78658      6747.4518      4312.59      
      6240   290.33409     -926.88679      6816.1441      4313.4789    
      6250   337.52976     -928.1819       5559.5178      4318.5683    
      6260   371.90191     -929.14817      3429.7423      4327.1611    
      6270   316.32389     -927.63946      920.40446      4338.0053    
      6280   306.9765      -927.40578     -2014.9358      4349.5425    
      6290   321.8449      -927.82945     -4628.9852      4359.9578    
      6300   292.31219     -927.01518     -6247.905       4367.5949    
      6310   294.47825     -927.08479     -6907.79        4371.3671    
      6320   333.41967     -928.19414     -6651.7226      4370.8026    
      6330   330.41132     -928.16651     -5393.3278      4366.0377    
      6340   314.07496     -927.78328     -3494.5334      4357.8357    
      6350   330.63467     -928.3146      -1341.0653      4347.3785    
      6360   332.76611     -928.44488      1004.6162      4336.0306    
      6370   292.80907     -927.39372      3452.2533      4325.2692    
      6380   266.31247     -926.68964      5528.0639      4316.6009    
      6390   296.83714     -927.55773      6762.1417      4311.2944    
      6400   327.84342     -928.45558      7056.6197      4310.121     
      6410   306.71311     -927.9309       6483.1315      4313.2951    
      6420   306.51352     -928.00092      4920.7057      4320.493     
      6430   331.54017     -928.77844      2528.3985      4330.7983    
      6440   310.74265     -928.2761      -265.43489      4342.7751    
      6450   316.45556     -928.49412     -3129.0203      4354.693     
      6460   316.93829     -928.56108     -5527.4299      4364.7526    
      6470   272.32536     -927.36836     -7105.992       4371.4099    
      6480   280.72522     -927.64724     -7786.2753      4373.6162    
      6490   305.46002     -928.39629     -7229.9532      4370.9233    
      6500   283.24785     -927.85031     -5407.7351      4363.6753    
      6510   300.87483     -928.40359     -2896.8856      4353.0015    
      6520   325.34254     -929.13445      33.2323        4340.4962    
      6530   294.63175     -928.31409      3078.5964      4328.0045    
      6540   289.25089     -928.17614      5584.8579      4317.3987    
      6550   311.62072     -928.80767      7154.2958      4310.2107    
      6560   296.30563     -928.40825      7639.5122      4307.3996    
      6570   283.27718     -928.09097      7000.1489      4309.2663    
      6580   264.35989     -927.61313      5578.3516      4315.4585    
      6590   277.32912     -928.00756      3431.8587      4325.1292    
      6600   324.62489     -929.33783      755.95784      4336.9808    
      6610   298.16305     -928.60309     -1901.3881      4349.3849    
      6620   291.88449     -928.41258     -4559.9796      4360.652     
      6630   333.77186     -929.55657     -6772.6885      4369.0942    
      6640   285.79214     -928.2232      -7717.7869      4373.3203    
      6650   240.20258     -926.96915     -7591.3789      4372.6867    
      6660   284.30184     -928.20908     -6509.5465      4367.2592    
      6670   285.04635     -928.23198     -4080.5297      4357.7687    
      6680   291.92492     -928.40174     -1015.3067      4345.7402    
      6690   344.30523     -929.80182      1875.3188      4333.0849    
      6700   319.10181     -929.03053      4539.9492      4321.6273    
      6710   285.94774     -928.03909      6479.5438      4312.9891    
      6720   307.28271     -928.55966      7393.4611      4308.335     
      6730   282.53616     -927.79927      7575.27        4308.2372    
      6740   289.31019     -927.91638      6555.3207      4312.7769    
      6750   314.47683     -928.51693      4447.2598      4321.3464    
      6760   284.80247     -927.56798      1842.8573      4332.6938    
      6770   308.28917     -928.06483     -1250.8106      4345.1995    
      6780   311.29944     -927.95182     -4074.3334      4356.9586    
      6790   243.4383      -925.88196     -5888.1106      4366.2103    
      6800   304.23307     -927.3986      -7022.9199      4371.7548    
      6810   393.07075     -929.68371     -7180.7162      4372.8739    
      6820   324.74318     -927.67806     -5895.0743      4369.5031    
      6830   315.37604     -927.37185     -4103.2839      4362.4215    
      6840   385.0731      -929.27864     -2225.0447      4352.7709    
      6850   346.90258     -928.2192       109.13839      4341.7916    
      6860   305.08892     -927.07124      2446.736       4330.9382    
      6870   326.46728     -927.67763      4389.2128      4321.6499    
      6880   304.91529     -927.09766      5963.9532      4315.1243    
      6890   280.80523     -926.4544       6691.561       4312.2866    
      6900   291.73041     -926.79271      6265.9722      4313.551     
      6910   313.34242     -927.43718      4964.8252      4318.6623    
      6920   331.51254     -928.00039      3167.3829      4326.8372    
      6930   301.34053     -927.22493      1147.7359      4336.9806    
      6940   307.80257     -927.45491     -1234.6398      4347.821     
      6950   364.19573     -929.07715     -3641.5774      4357.8727    
      6960   341.97651     -928.54571     -5315.8072      4365.6488    
      6970   310.85816     -927.786       -6347.3593      4370.0682    
      6980   327.34091     -928.37466     -6749.8355      4370.4708    
      6990   285.51231     -927.35849     -5963.3088      4366.6514    
      7000   268.81029     -927.01744     -4246.4813      4359.1221    
      7010   341.42592     -929.15273     -2019.1471      4348.9829    
      7020   331.38868     -928.99474      808.64584      4337.6829    
      7030   279.81393     -927.64886      3518.8195      4326.9716    
      7040   318.66935     -928.79522      5219.9022      4318.4775    
      7050   302.1721      -928.40753      6256.077       4313.2547    
      7060   249.04775     -926.98834      6517.249       4311.9054    
      7070   290.23374     -928.18336      5625.9248      4314.5402    
      7080   292.18525     -928.2869       4243.5407      4320.6353    
      7090   253.79287     -927.25413      2562.1269      4329.3415    
      7100   306.85314     -928.74042      233.64292      4339.5855    
      7110   327.75633     -929.31745     -1975.5054      4349.9559    
      7120   304.13088     -928.65649     -3863.4968      4359.0655    
      7130   333.26381     -929.46888     -5649.413       4365.6961    
      7140   314.28276     -928.96669     -6588.1495      4368.7604    
      7150   244.06672     -927.0509      -6306.2346      4367.6964    
      7160   261.54833     -927.56427     -5279.6071      4362.6808    
      7170   308.08816     -928.87222     -3401.6424      4354.415     
      7180   305.34289     -928.79893     -729.01219      4344.1283    
      7190   315.04834     -929.06131      1840.5989      4333.4779    
      7200   306.26589     -928.80327      3939.3085      4324.0581    
      7210   284.90021     -928.19369      5490.8546      4317.1528    
      7220   299.75093     -928.59483      6175.6765      4313.67      
      7230   291.93711     -928.37729      5988.0135      4313.9975    
      7240   257.25376     -927.41837      5065.249       4317.9993    
      7250   273.79524     -927.87119      3330.9478      4325.0809    
      7260   298.37795     -928.52203      1142.0525      4334.1751    
      7270   271.54438     -927.72046     -936.06541      4343.9444    
      7280   284.96881     -928.01231     -2931.0234      4353.0738    
      7290   332.48311     -929.22059     -4552.6419      4360.3188    
      7300   325.32815     -928.90819     -5246.8703      4364.6896    
      7310   293.96309     -927.94255     -5140.1057      4365.7537    
      7320   352.77985     -929.48734     -4846.735       4363.5646    
      7330   354.03996     -929.44212     -3879.8985      4358.3754    
      7340   266.77155     -926.96475     -2135.1842      4350.8421    
      7350   275.6027      -927.14715     -374.68005      4342.051     
      7360   326.49348     -928.45483      1448.0099      4333.1302    
      7370   285.37652     -927.18518      3576.8386      4325.2395    
      7380   297.57955     -927.39286      5043.8483      4319.6265    
      7390   350.55053     -928.71333      5514.7139      4317.1506    
      7400   291.87157     -926.9516       5386.3708      4318.0929    
      7410   266.7595      -926.15304      4409.5007      4322.3251    
      7420   338.98994     -928.03869      2743.3146      4329.2285    
      7430   342.16146     -927.9969       1011.1238      4337.7923    
      7440   326.58576     -927.46276     -899.94061      4346.9161    
      7450   354.6084      -928.15602     -2906.5977      4355.3979    
      7460   351.39115     -928.00846     -4397.5184      4362.008     
      7470   327.36653     -927.32061     -5195.3777      4365.8203    
      7480   322.79162     -927.20296     -5382.7979      4366.3428    
      7490   321.35847     -927.19284     -4830.2742      4363.5009    
      7500   358.09136     -928.26924     -3632.9859      4357.6793    
      7510   334.57174     -927.69662     -1672.0089      4349.6914    
      7520   295.72226     -926.69043      492.49647      4340.7756    
      7530   344.97472     -928.12511      2165.5833      4332.2632    
      7540   347.0539      -928.2674       3530.6452      4325.2031    
      7550   266.42788     -926.10227      4663.0552      4320.4237    
      7560   279.05302     -926.50592      5041.2201      4318.5549    
      7570   308.1159      -927.36239      4880.4272      4319.8086    
      7580   300.54439     -927.20041      4188.6908      4324.0515    
      7590   347.82733     -928.56928      2715.6354      4330.8125    
      7600   360.06479     -928.98157      885.89661      4339.1839    
      7610   331.05474     -928.25456     -1074.5734      4348.0231    
      7620   344.09362     -928.69568     -3148.1325      4356.0902    
      7630   318.03943     -928.05163     -4712.8013      4362.1188    
      7640   287.60842     -927.27457     -5598.5863      4365.1421    
      7650   313.69462     -928.06875     -5762.8479      4364.631     
      7660   293.92102     -927.59439     -4784.7937      4360.5568    
      7670   270.39914     -927.00168     -2979.3268      4353.5778    
      7680   310.21531     -928.15238     -954.61519      4344.8482    
      7690   311.96488     -928.23407      1275.5044      4335.6777    
      7700   300.61161     -927.94201      3258.7117      4327.4411    
      7710   327.56092     -928.71682      4572.4122      4321.3252    
      7720   308.18462     -928.21849      5446.9249      4318.1189    
      7730   291.71917     -927.80945      5521.7186      4318.292     
      7740   331.47963     -928.97814      4431.9987      4321.8176    
      7750   308.53646     -928.4189       2858.5791      4328.0243    
      7760   272.44401     -927.48459      1032.6621      4335.9176    
      7770   291.72515     -928.06889     -1010.4796      4344.342     
      7780   292.98493     -928.13835     -2752.7793      4352.0416    
      7790   272.88972     -927.60159     -3913.0631      4357.9425    
      7800   309.67821     -928.64192     -4618.9568      4361.3218    
      7810   337.05115     -929.43688     -4664.2664      4361.7816    
      7820   308.51466     -928.7031      -4101.2023      4359.3357    
      7830   291.21013     -928.2888      -3235.7572      4354.3723    
      7840   297.37597     -928.52663     -1914.8288      4347.4943    
      7850   259.83677     -927.53473      52.072973      4339.5854    
      7860   258.14952     -927.50883      1987.6136      4331.8569    
      7870   330.02071     -929.51225      3417.905       4325.4808    
      7880   330.71106     -929.55245      4552.9815      4321.3302    
      7890   275.43746     -928.05322      4967.6644      4320.0371    
      7900   297.7306      -928.71609      4230.7947      4321.7765    
      7910   289.22386     -928.52766      3082.8536      4326.0899    
      7920   237.66782     -927.1298       1765.0874      4332.2421    
      7930   270.24025     -928.04453      99.698555      4339.3764    
      7940   318.44094     -929.37046     -1487.7223      4346.4674    
      7950   313.02024     -929.20427     -2772.5926      4352.5337    
      7960   298.59827     -928.79578     -3757.9603      4356.7786    
      7970   282.7349      -928.35016     -4170.3409      4358.6262    
      7980   281.68922     -928.31343     -4009.9043      4357.8563    
      7990   306.87067     -929.00166     -3356.3367      4354.6128    
      8000   284.1136      -928.35175     -2027.6378      4349.3726    
      8010   279.08054     -928.18074     -510.61894      4342.9846    
      8020   325.87482     -929.42796      778.37103      4336.3982    
      8030   283.45908     -928.18397      2166.0578      4330.4439    
      8040   253.29024     -927.27357      3199.3198      4325.9397    
      8050   322.41195     -929.09464      3525.3162      4323.4686    
      8060   296.07399     -928.24603      3869.8611      4323.2359    
      8070   250.88594     -926.88946      3870.5068      4325.3894    
      8080   333.21921     -929.05564      2820.2567      4329.8435    
      8090   349.83876     -929.37565      1424.4114      4335.9566    
      8100   305.83475     -928.04426     -105.76618      4342.8462    
      8110   337.6586      -928.83409     -1936.3839      4349.5305    
      8120   319.19164     -928.23597     -3351.7474      4354.9095    
      8130   247.13783     -926.16917     -4112.0011      4358.1267    
      8140   276.0397      -926.90644     -4441.8684      4358.7241    
      8150   309.70236     -927.75973     -3885.3716      4356.5751    
      8160   298.02351     -927.3579      -2480.2873      4352.0885    
      8170   331.72324     -928.22194     -911.7115       4346.1577    
      8180   341.63741     -928.43088      745.98195      4339.799     
      8190   340.6546      -928.35919      2131.0165      4334.0351    
      8200   359.14596     -928.85781      2944.3281      4329.6916    
      8210   318.29697     -927.73882      3485.8371      4327.2588    
      8220   295.48774     -927.13494      3471.4277      4327.0103    
      8230   323.22493     -927.94411      2769.8423      4328.8832    
      8240   303.44021     -927.44222      1872.374       4332.4315    
      8250   286.90871     -927.02743      899.00648      4337.0762    
      8260   334.61864     -928.39958     -326.66631      4342.1802    
      8270   324.26352     -928.17347     -1388.9541      4346.9989    
      8280   279.72339     -926.99989     -2206.7935      4350.8764    
      8290   297.84838     -927.56286     -2922.0724      4353.3051    
      8300   314.52277     -928.0923      -3093.2585      4353.8913    
      8310   311.24276     -928.07942     -2674.4095      4352.567     
      8320   314.12818     -928.25095     -2014.7691      4349.6134    
      8330   297.86467     -927.8954      -1118.4739      4345.4813    
      8340   292.15017     -927.82795     -15.873225      4340.7545    
      8350   310.47428     -928.42513      1202.5856      4336.1306    
      8360   328.4259      -929.02255      2239.0663      4332.3459    
      8370   321.61684     -928.94612      2889.6594      4330.015     
      8380   315.85854     -928.90921      2882.0619      4329.4923    
      8390   306.19099     -928.76399      2281.0557      4330.7414    
      8400   296.68384     -928.61529      1338.6083      4333.3685    
      8410   254.5528      -927.53106      443.96203      4336.7874    
      8420   247.93786     -927.39385     -429.48025      4340.4252    
      8430   286.68769     -928.49253     -1189.5409      4343.7388    
      8440   272.03835     -928.09149     -1501.5431      4346.2808    
      8450   272.11635     -928.08626     -1683.1198      4347.8506    
      8460   330.86318     -929.70705     -1920.2147      4348.3388    
      8470   303.22175     -928.93707     -1718.1618      4347.6495    
      8480   256.1615      -927.62801     -1236.1653      4345.9196    
      8490   302.86483     -928.91374     -726.45596      4343.4539    
      8500   318.91415     -929.34444      91.402914      4340.6044    
      8510   288.94028     -928.50141      905.62986      4337.8715    
      8520   319.52511     -929.34487      1169.9494      4335.7245    
      8530   309.34069     -929.0612       1323.0621      4334.3458    
      8540   268.32147     -927.92357      1436.3814      4333.8179    
      8550   267.38153     -927.88849      1271.4469      4334.1818    
      8560   289.09301     -928.46799      925.15928      4335.3261    
      8570   303.56849     -928.8392       591.83984      4337.035     
      8580   290.49704     -928.44587      234.84626      4339.0904    
      8590   257.78153     -927.5015      -196.39896      4341.2635    
      8600   288.90625     -928.31769     -779.39826      4343.2761    
      8610   308.30619     -928.79386     -1114.3183      4344.791     
      8620   274.66014     -927.797       -1116.6964      4345.6123    
      8630   317.2774      -928.91713     -1267.2067      4345.717     
      8640   332.00267     -929.26104     -1195.3389      4345.0456    
      8650   263.36268     -927.30396     -673.27629      4343.669     
      8660   275.65994     -927.59309     -210.95415      4341.8914    
      8670   329.78233     -929.02429      164.7479       4340.008     
      8680   322.7703      -928.76109      663.06238      4338.2679    
      8690   312.06655     -928.41306      1112.7168      4336.969     
      8700   312.19656     -928.37479      1308.1003      4336.3743    
      8710   313.57429     -928.37794      1133.9208      4336.5898    
      8720   320.52206     -928.54526      726.66685      4337.503     
      8730   289.00015     -927.65046      373.46274      4338.8704    
      8740   279.12843     -927.35464     -145.6729       4340.4504    
      8750   300.72728     -927.92305     -627.22887      4341.9276    
      8760   276.47274     -927.20865     -645.59206      4343.0289    
      8770   286.85603     -927.44646     -590.29668      4343.7236    
      8780   355.03964     -929.27606     -728.33229      4344.0322    
      8790   317.86137     -928.18655     -529.13234      4343.9103    
      8800   292.94837     -927.45283     -388.78767      4343.4604    
      8810   334.85826     -928.57078     -460.85258      4342.7633    
      8820   296.73048     -927.46455     -209.30476      4341.8109    
      8830   269.31806     -926.65365      101.67614      4340.7458    
      8840   338.8944      -928.51298      283.84827      4339.7499    
      8850   345.68937     -928.61055      827.82295      4338.9707    
      8860   333.24983     -928.18839      1265.0273      4338.7175    
      8870   371.31473     -929.18139      1099.4086      4339.2307    
      8880   348.53469     -928.51085      622.56913      4340.4203    
      8890   304.64562     -927.2821      -102.07396      4341.9847    
      8900   298.90882     -927.1213      -919.5651       4343.4719    
      8910   263.73824     -926.13577     -1241.3266      4344.4063    
      8920   266.67607     -926.19496     -1243.6465      4344.5756    
      8930   301.98242     -927.1324      -971.49174      4343.9818    
      8940   311.66199     -927.34566     -298.55741      4342.8112    
      8950   340.92563     -928.10411      384.56739      4341.4684    
      8960   369.52058     -928.86225      726.58627      4340.362     
      8970   337.63615     -927.9759       925.43329      4339.7201    
      8980   334.56009     -927.91938      889.95002      4339.656     
      8990   352.08821     -928.46508      640.18585      4340.1451    
      9000   327.60905     -927.87354      332.08392      4341.0381    
      9010   328.02437     -927.99557     -154.57278      4342.1309    
      9020   319.4326      -927.88849     -618.00437      4343.1285    
      9030   275.64312     -926.7966      -838.54089      4343.7537    
      9040   287.06097     -927.2221      -910.2242       4343.8615    
      9050   305.1266      -927.83031     -735.69044      4343.4161    
      9060   289.75864     -927.50154     -337.2556       4342.5292    
      9070   315.86766     -928.3191       16.760174      4341.4371    
      9080   350.91512     -929.40247      205.3177       4340.3568    
      9090   314.30789     -928.51031      328.33655      4339.414     
      9100   266.04141     -927.27419      358.58096      4338.681     
      9110   265.66013     -927.33774      426.51836      4338.1838    
      9120   303.24137     -928.44132      515.39607      4337.9617    
      9130   316.60468     -928.87211      614.38297      4338.0705    
      9140   304.22483     -928.58963      631.22514      4338.5664    
      9150   310.86278     -928.83486      441.66982      4339.4524    
      9160   319.69293     -929.1476       93.683235      4340.6107    
      9170   273.24343     -927.91983     -206.995        4341.8359    
      9180   272.86058     -927.95232     -656.43061      4342.9256    
      9190   324.52053     -929.42711     -1105.0752      4343.6033    
      9200   281.06754     -928.26053     -914.07229      4343.6286    
      9210   251.09017     -927.45247     -587.50824      4343.0913    
      9220   315.50347     -929.25469     -576.21215      4342.1698    
      9230   306.57466     -929.01988     -269.1981       4340.912     
      9240   256.4211      -927.63609      255.11495      4339.5064    
      9250   295.57724     -928.72235      454.1737       4338.2472    
      9260   305.76356     -928.99544      688.06427      4337.2848    
      9270   276.78524     -928.17979      925.63421      4336.7626    
      9280   292.12957     -928.58928      806.87495      4336.8065    
      9290   306.97699     -928.97741      557.21775      4337.3563    
      9300   298.04288     -928.70497      348.33478      4338.2646    
      9310   285.32529     -928.32617      102.01694      4339.3948    
      9320   270.17165     -927.86981     -178.51799      4340.5932    
      9330   283.0454      -928.17594     -457.97624      4341.6839    
      9340   297.42599     -928.50458     -541.50959      4342.5029    
      9350   290.7564      -928.23489     -391.79343      4343.0005    
      9360   321.82813     -929.00087     -316.34674      4343.2525    
      9370   346.047       -929.56641     -398.21813      4343.3028    
      9380   302.98159     -928.27632     -467.11794      4343.1106    
      9390   283.29547     -927.64361     -528.01721      4342.6305    
      9400   300.92332     -928.03207     -516.3845       4341.8262    
      9410   278.01879     -927.27891     -202.67132      4340.7208    
      9420   284.79829     -927.3405       197.61547      4339.4966    
      9430   316.60805     -928.07248      559.71696      4338.3999    
      9440   334.71569     -928.41895      847.94227      4337.6565    
      9450   338.5633      -928.39013      1076.7821      4337.4494    
      9460   316.62005     -927.67717      1115.273       4337.9159    
      9470   304.72885     -927.26774      712.2171       4339.0666    
      9480   325.15825     -927.76884      54.951711      4340.6571    
      9490   314.66103     -927.42448     -235.8341       4342.3139    
      9500   323.9679      -927.64772     -421.79891      4343.8362    
      9510   344.55338     -928.20321     -779.36541      4345.09      
      9520   300.40786     -926.97849     -961.64083      4345.8726    
      9530   308.48851     -927.21073     -1075.1551      4346.058     
      9540   352.96801     -928.46468     -991.51181      4345.5813    
      9550   320.48067     -927.59999     -472.17919      4344.5114    
      9560   305.48533     -927.22565     -63.433308      4343.1415    
      9570   348.31959     -928.46639      26.204394      4341.717     
      9580   322.85171     -927.8248       264.27607      4340.3238    
      9590   293.47656     -927.06948      497.5559       4339.1018    
      9600   329.69237     -928.13582      489.84613      4338.1806    
      9610   301.05416     -927.40094      733.39481      4337.5887    
      9620   283.97495     -926.97391      955.94754      4337.4619    
      9630   339.33375     -928.55698      856.19215      4337.9229    
      9640   350.05728     -928.91778      685.06949      4338.9267    
      9650   314.06993     -927.99401      388.81433      4340.3656    
      9660   306.78858     -927.86438     -267.52696      4342.0379    
      9670   299.38572     -927.72508     -848.9599       4343.5569    
      9680   266.29498     -926.85552     -1052.4534      4344.5721    
      9690   276.62642     -927.17206     -1080.7249      4344.9399    
      9700   330.30613     -928.68615     -979.61019      4344.6385    
      9710   340.06852     -928.99517     -617.74862      4343.7393    
      9720   301.38284     -927.97005     -170.31061      4342.4601    
      9730   309.59107     -928.2476       118.83919      4341.0666    
      9740   330.00196     -928.87126      451.57303      4339.7535    
      9750   305.9243      -928.26573      837.52361      4338.7325    
      9760   313.02242     -928.52773      840.1536       4338.2199    
      9770   327.9299      -929.01653      566.6649       4338.2257    
      9780   291.57183     -928.08409      311.08712      4338.5969    
      9790   260.27545     -927.2757       14.772026      4339.1684    
      9800   262.99648     -927.38947     -280.06048      4339.7562    
      9810   281.93405     -927.93626     -426.73865      4340.183     
      9820   292.20617     -928.23275     -375.0215       4340.3578    
      9830   274.22468     -927.73685     -48.057405      4340.3182    
      9840   279.87632     -927.88504      290.44962      4340.2551    
      9850   346.06745     -929.7116       314.65566      4340.3606    
      9860   336.50832     -929.45131      387.21011      4340.6769    
      9870   303.28566     -928.5518       260.81785      4341.2348    
      9880   338.47219     -929.56586     -293.34169      4341.9392    
      9890   308.09014     -928.77534     -583.96966      4342.4844    
      9900   238.31774     -926.87978     -552.25303      4342.6887    
      9910   279.62058     -928.05157     -687.13993      4342.5373    
      9920   316.57055     -929.09484     -575.47818      4341.9723    
      9930   279.63896     -928.08635     -117.13233      4341.0692    
      9940   287.83959     -928.32709      75.729642      4340.0779    
      9950   308.75362     -928.91813      110.01613      4339.1268    
      9960   268.3883      -927.8038       352.48147      4338.2617    
      9970   263.45973     -927.66322      424.82398      4337.6089    
      9980   287.2458      -928.3008       452.79504      4337.2238    
      9990   296.73668     -928.5243       646.35403      4337.1375    
     10000   304.45554     -928.68637      795.92245      4337.4609    
     10010   308.00343     -928.7204       729.1985       4338.2809    
     10020   311.96455     -928.75411      436.15107      4339.5586    
     10030   320.30478     -928.89783     -0.25522395     4341.1149    
     10040   303.35178     -928.33069     -269.74548      4342.6958    
     10050   300.85115     -928.15715     -503.27251      4344.1225    
     10060   324.16608     -928.68481     -918.98818      4345.2335    
     10070   316.39502     -928.34359     -1213.5735      4345.7827    
     10080   283.91455     -927.32516     -1176.6824      4345.5932    
     10090   293.58079     -927.47608     -1065.041       4344.667     
     10100   301.60151     -927.56946     -692.6394       4343.084     
     10110   301.98938     -927.45271      0.39897398     4341.0803    
     10120   323.62931     -927.93034      660.89557      4339.0712    
     10130   336.5667      -928.1789       1079.5602      4337.4617    
     10140   327.07976     -927.83157      1277.6916      4336.5189    
     10150   312.59398     -927.36969      1257.1586      4336.3712    
     10160   311.71922     -927.3006       928.9241       4337.003     
     10170   299.48755     -926.92324      520.23595      4338.2252    
     10180   306.52484     -927.08489      245.6937       4339.7964    
     10190   339.66858     -927.97711      91.768363      4341.5443    
     10200   349.38555     -928.23925     -7.2909791      4343.3712    
     10210   344.47424     -928.12444     -311.38477      4345.2012    
     10220   362.15435     -928.67054     -939.01342      4346.8329    
     10230   345.19585     -928.29272     -1375.1141      4347.8993    
     10240   291.1894      -926.89592     -1411.5795      4348.1319    
     10250   298.8471      -927.20429     -1412.8314      4347.4778    
     10260   327.68113     -928.10926     -1204.3156      4345.9437    
     10270   298.14184     -927.3967      -647.10366      4343.6655    
     10280   288.40903     -927.21912     -99.489762      4340.9705    
     10290   319.0546      -928.16135      411.84669      4338.1997    
     10300   288.69535     -927.403        1099.267       4335.6911    
     10310   277.87833     -927.16765      1456.0839      4333.8451    
     10320   319.707       -928.38827      1582.4697      4332.8962    
     10330   317.35064     -928.38607      1846.408       4332.9526    
     10340   301.01254     -927.995        1854.5549      4334.1635    
     10350   324.76697     -928.71886      1292.205       4336.5235    
     10360   328.83463     -928.90327      545.20651      4339.7137    
     10370   314.3414      -928.57497     -272.28213      4343.2756    
     10380   316.99661     -928.72186     -1201.7789      4346.6914    
     10390   306.587       -928.50241     -1960.725       4349.3886    
     10400   295.24003     -928.24891     -2475.8851      4350.8825    
     10410   286.51156     -928.05978     -2643.6125      4350.8402    
[...]
     47810   290.71291     -928.02614      7962.5338      4306.614     
     47820   290.29929     -928.05355      6814.5623      4311.2478    
     47830   304.65501     -928.50026      4699.4587      4319.9859    
     47840   299.57889     -928.40219      2123.3578      4331.5198    
     47850   303.80823     -928.54764     -756.74494      4344.2334    
     47860   307.30382     -928.65649     -3643.4786      4356.3259    
     47870   286.76971     -928.0897      -6006.9373      4366.0036    
     47880   266.77646     -927.53655     -7390.4786      4371.8103    
     47890   280.0298      -927.91515     -7627.8531      4372.918     
     47900   290.13785     -928.21792     -6747.9366      4369.2449    
     47910   297.29233     -928.44577     -4974.1076      4361.4246    
     47920   303.21456     -928.63478     -2415.2471      4350.6639    
     47930   292.75962     -928.3498       648.88558      4338.6303    
     47940   301.02067     -928.56132      3447.9046      4327.2266    
     47950   327.49876     -929.27051      5463.6905      4318.1457    
     47960   323.86036     -929.1615       6658.8621      4312.5733    
     47970   291.87857     -928.29174      6926.4443      4311.1608    
     47980   286.89189     -928.18976      6057.7875      4313.9795    
     47990   285.89581     -928.20328      4348.1748      4320.446     
     48000   270.72883     -927.81268      2163.122       4329.4766    
     48010   264.62934     -927.64801     -165.09588      4339.7035    
     48020   285.97066     -928.21515     -2330.8758      4349.6742    
     48030   308.76289     -928.80146     -4033.6427      4358.0495    
     48040   313.32201     -928.88077     -5231.3555      4363.7763    
     48050   299.71003     -928.46712     -5816.8798      4366.1433    
     48060   299.54578     -928.44029     -5622.0509      4364.8469    
     48070   297.68946     -928.3733      -4538.0389      4360.0902    
     48080   288.68302     -928.10526     -2796.2801      4352.6208    
     48090   294.83819     -928.24382     -769.38167      4343.5777    
     48100   306.68523     -928.52128      1337.3653      4334.2575    
     48110   294.49351     -928.11654      3407.5261      4325.972     
     48120   300.0429      -928.19737      4979.065       4319.9493    
     48130   325.70622     -928.83764      5598.1123      4317.0763    
     48140   306.91146     -928.25853      5385.4344      4317.6736    
     48150   286.97616     -927.6631       4435.1241      4321.5477    
     48160   297.41962     -927.9078       2883.6609      4328.0653    
     48170   303.51603     -928.01762      1043.4839      4336.2453    
     48180   306.55792     -928.03026     -877.91473      4344.9316    
     48190   311.50446     -928.0855      -2709.111       4352.9244    
     48200   315.12523     -928.10128     -4132.4736      4359.1019    
     48210   327.06136     -928.35698     -4901.8375      4362.6078    
     48220   314.44412     -927.94931     -4884.6049      4363.0115    
     48230   293.66617     -927.3318      -4309.3178      4360.3702    
     48240   308.37989     -927.7045      -3316.4631      4355.1016    
     48250   308.74498     -927.6744      -1702.0692      4347.9049    
     48260   303.25652     -927.47592      339.13971      4339.8268    
     48270   331.51623     -928.20654      2175.8756      4332.124     
     48280   338.11128     -928.34085      3587.0975      4325.9161    
     48290   301.97141     -927.30608      4588.7426      4322.0409    
     48300   313.69656     -927.61513      4882.6251      4321.0444    
     48310   336.16805     -928.23804      4452.3276      4323.051     
     48320   319.78764     -927.80429      3370.8749      4327.7471    
     48330   314.37173     -927.6899       1696.496       4334.4244    
     48340   321.08064     -927.92005     -168.0983       4342.0381    
     48350   318.9698      -927.91451     -1897.4037      4349.4306    
     48360   321.44875     -928.05507     -3379.7148      4355.5249    
     48370   302.04688     -927.60769     -4335.0454      4359.426     
     48380   293.31346     -927.47341     -4668.5997      4360.5699    
     48390   296.08089     -927.67505     -4295.7608      4358.8005    
     48400   298.44005     -927.87814     -3229.4491      4354.4097    
     48410   308.13108     -928.29237     -1755.5726      4348.107     
     48420   311.44005     -928.53456     -150.12637      4340.8417    
     48430   291.58267     -928.12029      1556.5026      4333.6382    
     48440   297.74421     -928.41003      2993.6705      4327.5308    
     48450   307.69221     -928.79768      4021.2806      4323.3787    
     48460   298.18176     -928.63854      4483.6586      4321.7665    
     48470   291.77252     -928.55614      4183.9536      4322.9198    
     48480   301.56069     -928.91487      3167.2307      4326.611     
     48490   302.28177     -929.01389      1733.6599      4332.1904    
     48500   275.83237     -928.33983      221.66641      4338.7634    
     48510   260.10448     -927.93559     -1334.4633      4345.3759    
     48520   274.87458     -928.35367     -2761.3413      4351.0622    
     48530   285.33687     -928.63755     -3611.9542      4354.9648    
     48540   284.91693     -928.6143      -3768.0671      4356.5806    
     48550   297.73797     -928.9592      -3501.4739      4355.8292    
     48560   294.71032     -928.86537     -2858.2506      4352.9171    
     48570   282.71363     -928.52049     -1845.7853      4348.2865    
     48580   301.66974     -929.02868     -566.15442      4342.5987    
     48590   297.63522     -928.8914       858.9284       4336.6682    
     48600   272.49383     -928.16117      2024.717       4331.3646    
     48610   295.34655     -928.75662      2684.1984      4327.382     
     48620   281.96898     -928.33824      3285.6972      4325.1336    
     48630   261.93584     -927.73252      3555.1955      4324.9449    
     48640   304.48174     -928.85536      3078.3586      4326.9269    
     48650   315.51507     -929.09549      2216.6462      4330.7788    
     48660   277.78596     -927.9877       1169.3986      4335.9556    
     48670   297.65627     -928.47535     -234.87089      4341.7784    
     48680   317.97984     -928.96207     -1603.8189      4347.3866    
     48690   286.9558      -928.02582     -2594.6261      4351.9443    
     48700   295.95004     -928.20493     -3318.5118      4354.8307    
     48710   313.97842     -928.63293     -3534.5262      4355.6243    
     48720   301.80147     -928.2309      -3090.4049      4354.2272    
     48730   304.27783     -928.24526     -2297.7545      4350.9305    
     48740   291.61962     -927.84024     -1234.6942      4346.2595    
     48750   278.42015     -927.4162      -46.457507      4340.8947    
     48760   312.73876     -928.30151      1062.7598      4335.5775    
     48770   320.22905     -928.43798      2165.4149      4331.0037    
     48780   289.54525     -927.52459      3064.5641      4327.8364    
     48790   312.91764     -928.12034      3294.3328      4326.5825    
     48800   319.25395     -928.24867      3117.2844      4327.3766    
     48810   298.22883     -927.63084      2644.5928      4330.0907    
     48820   320.4323      -928.22079      1687.5542      4334.3996    
     48830   336.47418     -928.64689      477.63805      4339.707     
     48840   313.94374     -928.01476     -697.07539      4345.2667    
     48850   320.57959     -928.20235     -1963.6883      4350.3299    
     48860   324.41349     -928.32207     -3034.052       4354.1219    
     48870   302.68045     -927.7444      -3569.5129      4355.9978    
     48880   286.24449     -927.3193      -3520.4004      4355.6421    
     48890   287.55849     -927.38542     -3014.3321      4353.1036    
     48900   300.42513     -927.77048     -2069.5089      4348.7275    
     48910   298.1005      -927.73142     -598.40433      4343.1411    
     48920   297.49716     -927.73497      991.66273      4337.2605    
     48930   327.79868     -928.6003       2238.437       4332.0565    
     48940   329.36292     -928.68992      3137.5271      4328.2964    
     48950   304.68322     -928.08144      3618.5281      4326.5161    
     48960   314.20274     -928.4641       3398.6334      4326.9724    
     48970   313.81422     -928.63211      2635.2261      4329.5157    
     48980   281.90612     -927.9695       1580.0042      4333.6685    
     48990   280.90777     -928.17598      248.33272      4338.7602    
     49000   299.21796     -928.92476     -1099.3238      4343.966     
     49010   276.88086     -928.50991     -2071.5259      4348.4638    
     49020   272.83911     -928.54629     -2751.3934      4351.6395    
     49030   289.43515     -929.12077     -3094.0365      4353.0779    
     49040   282.93718     -929.02808     -3006.9903      4352.5844    
     49050   275.63797     -928.89058     -2567.6744      4350.2271    
     49060   275.14359     -928.92316     -1744.0882      4346.3047    
     49070   262.51652     -928.59777     -522.51788      4341.3556    
     49080   265.85715     -928.69328      741.91345      4336.1372    
     49090   285.01598     -929.20985      1799.5075      4331.4285    
     49100   281.23186     -929.07707      2698.2289      4327.8867    
     49110   282.54907     -929.08024      3203.4362      4326.0424    
     49120   285.22682     -929.11556      3172.867       4326.1847    
     49130   282.98615     -929.01017      2641.074       4328.2794    
     49140   275.43031     -928.74956      1728.9057      4331.9896    
     49150   277.5461      -928.74547      564.31619      4336.7422    
     49160   281.36924     -928.77266     -543.13995      4341.8234    
     49170   280.05734     -928.64428     -1552.3111      4346.5385    
     49180   283.54696     -928.63939     -2455.0711      4350.2538    
     49190   284.77005     -928.56521     -2957.1493      4352.424     
     49200   290.73703     -928.62184     -2926.9975      4352.749     
     49210   296.49537     -928.67417     -2511.4646      4351.2542    
     49220   311.18374     -928.97974     -1865.2061      4348.2076    
     49230   300.26641     -928.5828      -862.41626      4344.041     
     49240   282.47135     -928.00458      248.09138      4339.3804    
     49250   283.78975     -927.95599      1214.2376      4334.9121    
     49260   285.31148     -927.90834      2037.7182      4331.238     
     49270   286.4836      -927.84986      2648.8886      4328.8596    
     49280   307.90652     -928.35587      2867.7291      4328.1345    
     49290   308.59013     -928.29338      2724.7233      4329.1899    
     49300   307.29558     -928.19061      2135.3746      4331.9199    
     49310   328.02001     -928.71013      1244.6403      4335.9561    
     49320   310.44693     -928.17798      376.70771      4340.7583    
     49330   304.44341     -927.97645     -754.69601      4345.7603    
     49340   337.42642     -928.86261     -2050.1914      4350.2547    
     49350   317.51855     -928.2944      -2847.5941      4353.4669    
     49360   277.95659     -927.19055     -3172.496       4354.8956    
     49370   304.81002     -927.93262     -3280.2246      4354.3277    
     49380   303.15597     -927.88395     -2757.4801      4351.7357    
     49390   279.44995     -927.223       -1679.0826      4347.4614    
     49400   306.83489     -927.97408     -438.28982      4342.1754    
     49410   322.44479     -928.39436      985.70918      4336.6701    
     49420   300.01665     -927.76149      2328.788       4331.8258    
     49430   311.44533     -928.07432      3036.605       4328.4391    
     49440   313.04933     -928.12105      3312.4906      4326.9535    
     49450   318.19004     -928.27869      3185.76        4327.5266    
     49460   334.32383     -928.76196      2594.0824      4330.0638    
     49470   296.73599     -927.76877      1711.4514      4334.201     
     49480   291.41232     -927.672        404.46301      4339.3718    
     49490   329.56087     -928.78974     -1042.5219      4344.7698    
     49500   300.01996     -928.04062     -1990.9056      4349.5233    
     49510   284.10131     -927.67194     -2705.8228      4353.0181    
     49520   324.5357      -928.8855      -3373.5661      4354.793     
     49530   297.96095     -928.26205     -3341.4705      4354.4748    
     49540   266.6363      -927.50406     -2701.9374      4352.0889    
     49550   300.13325     -928.55068     -1902.0367      4348.0255    
     49560   286.56233     -928.29423     -731.2913       4342.818     
     49570   266.21345     -927.83107      676.47189      4337.2049    
     49580   304.60878     -928.99213      1860.384       4332.0431    
     49590   306.03192     -929.1324       2856.0081      4328.0731    
     49600   281.27027     -928.53857      3485.1597      4325.8954    
     49610   306.06267     -929.32126      3398.9556      4325.8672    
     49620   299.81207     -929.24579      2832.9446      4327.9397    
     49630   274.13349     -928.61946      1863.069       4331.7559    
     49640   271.16896     -928.60388      558.76161      4336.709     
     49650   262.99062     -928.41924     -726.16703      4342.0005    
     49660   261.83021     -928.40438     -1830.4513      4346.8315    
     49670   284.91081     -929.04591     -2702.3004      4350.5072    
     49680   278.0188      -928.84448     -3019.7802      4352.5001    
     49690   275.71965     -928.76446     -2839.1265      4352.6111    
     49700   299.95022     -929.41578     -2378.4514      4350.9499    
     49710   295.30313     -929.26311     -1641.8034      4347.8193    
     49720   283.12422     -928.90071     -766.44219      4343.6851    
     49730   286.01355     -928.95064      116.68413      4339.0975    
     49740   277.37975     -928.67211      1016.4477      4334.6148    
     49750   262.80076     -928.22         1868.0637      4330.7949    
     49760   267.47751     -928.2923       2513.9998      4328.1554    
     49770   276.47687     -928.47541      2874.3183      4327.0871    
     49780   282.34312     -928.56954      2876.7767      4327.804     
     49790   302.83346     -929.07385      2354.356       4330.291     
     49800   301.04306     -928.96784      1448.9527      4334.2276    
     49810   291.94479     -928.66915      286.32175      4339.0524    
     49820   300.5494      -928.86615     -963.06547      4344.0434    
     49830   288.18668     -928.48316     -1938.9836      4348.4357    
     49840   275.70967     -928.09837     -2590.64        4351.616     
     49850   300.5235      -928.7492      -3013.8917      4353.1669    
     49860   302.23317     -928.76266     -2959.8811      4352.8415    
     49870   283.32408     -928.2116      -2401.3802      4350.6824    
     49880   286.86093     -928.28365     -1571.6347      4347.0377    
     49890   295.34818     -928.48756     -527.43998      4342.4378    
     49900   295.54898     -928.45748      590.39256      4337.5377    
     49910   294.14087     -928.38067      1594.4905      4333.0292    
     49920   282.84319     -928.02614      2469.8087      4329.5375    
     49930   283.30522     -927.99446      3013.2586      4327.5912    
     49940   302.30955     -928.4744       3001.8234      4327.5075    
     49950   304.96147     -928.50199      2628.6881      4329.2861    
     49960   311.37346     -928.64039      1913.1425      4332.6912    
     49970   325.17311     -928.99081      856.15128      4337.2737    
     49980   304.44564     -928.39026     -302.52794      4342.3857    
     49990   279.50684     -927.67336     -1490.3905      4347.3016    
     50000   294.11659     -928.04679     -2572.4377      4351.2775    
Loop time of 10.5545 on 1 procs for 50000 steps with 216 atoms

Performance: 409.305 ns/day, 0.059 hours/ns, 4737.328 timesteps/s, 1.023 Matom-step/s
99.0% CPU use with 1 MPI tasks x 1 OpenMP threads

MPI task timing breakdown:
Section |  min time  |  avg time  |  max time  |%varavg| %total
---------------------------------------------------------------
Pair    | 10.003     | 10.003     | 10.003     |   0.0 | 94.78
Neigh   | 0          | 0          | 0          |   0.0 |  0.00
Comm    | 0.14102    | 0.14102    | 0.14102    |   0.0 |  1.34
Output  | 0.041606   | 0.041606   | 0.041606   |   0.0 |  0.39
Modify  | 0.33344    | 0.33344    | 0.33344    |   0.0 |  3.16
Other   |            | 0.03534    |            |       |  0.33

Nlocal:            216 ave         216 max         216 min
Histogram: 1 0 0 0 0 0 0 0 0 0
Nghost:            950 ave         950 max         950 min
Histogram: 1 0 0 0 0 0 0 0 0 0
Neighs:              0 ave           0 max           0 min
Histogram: 1 0 0 0 0 0 0 0 0 0
FullNghs:         7344 ave        7344 max        7344 min
Histogram: 1 0 0 0 0 0 0 0 0 0

Total # of neighbors = 7344
Ave neighs/atom = 34
Neighbor list builds = 0
Dangerous builds = 0


min_style cg
minimize 1e-10 1e-10 5000 10000
Per MPI rank memory allocation (min/avg/max) = 5.612 | 5.612 | 5.612 Mbytes
   Step          Temp          PotEng         Press          Volume    
     50000   294.11659     -928.04679     -2572.4377      4351.2775    
     50010   294.11659     -936.64864     -4071.8764      4351.2775    
     50020   294.11659     -936.65565     -4071.3938      4351.2775    
     50027   294.11659     -936.65566     -4071.3926      4351.2775    
Loop time of 0.00679085 on 1 procs for 27 steps with 216 atoms

99.5% CPU use with 1 MPI tasks x 1 OpenMP threads

Minimization stats:
  Stopping criterion = energy tolerance
  Energy initial, next-to-last, final = 
     -928.046785181009  -936.655655956627  -936.655656016925
  Force two-norm initial, final = 16.988879 0.0007267685
  Force max component initial, final = 2.121412 0.00010498398
  Final line search alpha, max atom move = 1 0.00010498398
  Iterations, force evaluations = 27 54

MPI task timing breakdown:
Section |  min time  |  avg time  |  max time  |%varavg| %total
---------------------------------------------------------------
Pair    | 0.0062264  | 0.0062264  | 0.0062264  |   0.0 | 91.69
Neigh   | 0          | 0          | 0          |   0.0 |  0.00
Comm    | 0.00015033 | 0.00015033 | 0.00015033 |   0.0 |  2.21
Output  | 1.1232e-05 | 1.1232e-05 | 1.1232e-05 |   0.0 |  0.17
Modify  | 0          | 0          | 0          |   0.0 |  0.00
Other   |            | 0.0004028  |            |       |  5.93

Nlocal:            216 ave         216 max         216 min
Histogram: 1 0 0 0 0 0 0 0 0 0
Nghost:            950 ave         950 max         950 min
Histogram: 1 0 0 0 0 0 0 0 0 0
Neighs:              0 ave           0 max           0 min
Histogram: 1 0 0 0 0 0 0 0 0 0
FullNghs:         7418 ave        7418 max        7418 min
Histogram: 1 0 0 0 0 0 0 0 0 0

Total # of neighbors = 7418
Ave neighs/atom = 34.342593
Neighbor list builds = 0
Dangerous builds = 0
variable teng equal "c_eatoms"
variable natoms equal "count(all)"
variable ecoh equal "v_teng/v_natoms"
variable lengthx equal lx/${xdim}
variable lengthx equal lx/3
variable lengthy equal ly/${ydim}
variable lengthy equal ly/3
variable lengthz equal lz/${zdim}
variable lengthz equal lz/3

print "cohesive energy: ${ecoh}"
cohesive energy: -4.33636877785613
print "x_length equals: ${lengthx}"
x_length equals: 5.44190560655453
print "y_length equals: ${lengthy}"
y_length equals: 5.44190560655453
print "z_length equals: ${lengthz}"
z_length equals: 5.44190560655453

variable lp_x equal ${lengthx}
variable lp_x equal 5.44190560655453
variable lp_y equal ${lengthy}
variable lp_y equal 5.44190560655453
variable lp_z equal ${lengthz}
variable lp_z equal 5.44190560655453

variable lp_avg equal "(v_lp_x + v_lp_y + v_lp_z) / 3"

print "lattice parameter equals ${lp_avg}"
lattice parameter equals 5.44190560655453
Total wall time: 0:00:10
