LAMMPS (30 Mar 2026)
OMP_NUM_THREADS environment is not set. Defaulting to 1 thread.
  using 1 OpenMP thread(s) per MPI task

# ------------------ Initialization ------------------
units           metal
boundary        p p p
atom_style      atomic

# ------------------ Geometry Generation -------------
# Silicon diamond cubic lattice constant is 5.431 Angstroms

variable pwd_path getenv PWD

variable structure_file string ../structures/si_structure.txt

read_data ../structures/si_structure.txt
Reading data file ...
  orthogonal box = (0 0 0) to (16.29 16.29 16.29)
  1 by 1 by 1 MPI processor grid
  reading atoms ...
  216 atoms
  read_data CPU = 0.001 seconds

# ------------------ Interatomic Potential -----------
# Using the standard Stillinger-Weber (SW) potential
pair_style      sw
pair_coeff      * * ../potentials/Si.sw Si
Reading sw potential file ../potentials/Si.sw with DATE: 2007-06-11


# ------------------ Compute -----------------
compute eng all pe/atom 	# a variable named 'eng' is defined to store the potential energy for each atom
compute eatoms all reduce sum c_eng  #a variable named 'eatoms' is defined to store the sum of all 'eng' values
compute new all temp


# ------------------ Energy Minimization -------------
# Relax the structure to remove any initial overlapping/strain
thermo          10
thermo_style    custom step temp pe press vol

minimize 1.0e-6 1.0e-6 5000 10000
Neighbor list info ...
  update: every = 1 steps, delay = 0 steps, check = yes
  max neighbors/atom: 2000, page size: 100000
  master list distance cutoff = 5.77118
  ghost atom cutoff = 5.77118
  binsize = 2.88559, bins = 6 6 6
  1 neighbor lists, perpetual/occasional/extra = 1 0 0
  (1) pair sw, perpetual
      attributes: full, newton on
      pair build: full/bin/atomonly
      stencil: full/bin/3d
      bin: standard
Per MPI rank memory allocation (min/avg/max) = 4.343 | 4.343 | 4.343 Mbytes
   Step          Temp          PotEng         Press          Volume    
         0   0             -936.70522      532.56802      4322.7812    
         1   0             -936.70522      532.56802      4322.7812    
Loop time of 0.000371874 on 1 procs for 1 steps with 216 atoms

98.2% CPU use with 1 MPI tasks x 1 OpenMP threads

Minimization stats:
  Stopping criterion = quadratic factors are zero
  Energy initial, next-to-last, final = 
     -936.705223045316  -936.705223045316  -936.705223045316
  Force two-norm initial, final = 1.1685261e-17 1.1685261e-17
  Force max component initial, final = 8.6736205e-19 8.6736205e-19
  Final line search alpha, max atom move = 1 8.6736205e-19
  Iterations, force evaluations = 1 2

MPI task timing breakdown:
Section |  min time  |  avg time  |  max time  |%varavg| %total
---------------------------------------------------------------
Pair    | 0.00034746 | 0.00034746 | 0.00034746 |   0.0 | 93.43
Neigh   | 0          | 0          | 0          |   0.0 |  0.00
Comm    | 9.668e-06  | 9.668e-06  | 9.668e-06  |   0.0 |  2.60
Output  | 0          | 0          | 0          |   0.0 |  0.00
Modify  | 0          | 0          | 0          |   0.0 |  0.00
Other   |            | 1.475e-05  |            |       |  3.97

Nlocal:            216 ave         216 max         216 min
Histogram: 1 0 0 0 0 0 0 0 0 0
Nghost:            950 ave         950 max         950 min
Histogram: 1 0 0 0 0 0 0 0 0 0
Neighs:              0 ave           0 max           0 min
Histogram: 1 0 0 0 0 0 0 0 0 0
FullNghs:         7344 ave        7344 max        7344 min
Histogram: 1 0 0 0 0 0 0 0 0 0

Total # of neighbors = 7344
Ave neighs/atom = 34
Neighbor list builds = 0
Dangerous builds = 0

# ------------------ Equilibration (NVT/NPT) ---------
reset_timestep  0
velocity all create ${temperature} 87287 loop geom
velocity all create 700 87287 loop geom

# Reference timestep for metal units with Silicon is typically 1-2 fs
timestep        0.001


# Tdamp - 100*Timestep
# Pdamp - 1000*Timestep
#
# Run NPT to fix temperature at 300K and pressure at 0 Bar
fix 1 all npt temp ${temperature} ${temperature} 0.1 iso ${pressure} ${pressure} 1.0
fix 1 all npt temp 700 ${temperature} 0.1 iso ${pressure} ${pressure} 1.0
fix 1 all npt temp 700 700 0.1 iso ${pressure} ${pressure} 1.0
fix 1 all npt temp 700 700 0.1 iso 0.0 ${pressure} 1.0
fix 1 all npt temp 700 700 0.1 iso 0.0 0.0 1.0

# Output settings

variable dump_path string "../results/lattice_parameter/si_out_${temperature}.dat"
../results/lattice_parameter/si_out_700.dat

dump 1 all custom 5000 ${dump_path} mass type xs ys zs
dump 1 all custom 5000 ../results/lattice_parameter/si_out_700.dat mass type xs ys zs

dump_modify 1 sort id

variable first_run_step equal ${steps}
variable first_run_step equal 50000

# Run the simulation
run ${first_run_step}
run 50000
Per MPI rank memory allocation (min/avg/max) = 3.218 | 3.218 | 3.218 Mbytes
   Step          Temp          PotEng         Press          Volume    
         0   700           -936.70522      5339.3783      4322.7812    
        10   379.12459     -927.75822      5894.3291      4323.5149    
        20   221.01724     -923.30724      4882.1179      4325.7896    
        30   426.08522     -928.82195      2333.7449      4329.3365    
        40   276.14441     -924.34281      1481.1695      4333.5627    
        50   203.02512     -922.11844      700.79747      4338.195     
        60   442.97632     -928.49088     -868.89772      4343.0009    
        70   355.91771     -925.72378     -1025.6261      4347.621     
        80   304.30235     -924.06552     -1286.9454      4351.9692    
        90   489.94832     -928.92284     -2550.2174      4355.9491    
       100   393.34264     -925.86923     -2893.8941      4359.272     
       110   331.06597     -923.85071     -3399.983       4361.81      
       120   469.20639     -927.3174      -4438.4637      4363.411     
       130   377.1743      -924.33557     -4032.9961      4363.8466    
       140   339.91361     -922.97025     -3451.5231      4363.1902    
       150   508.87625     -927.24228     -3597.0154      4361.5748    
       160   449.65426     -925.10904     -2669.7516      4359.0129    
       170   379.41515     -922.77728     -1302.7593      4355.7396    
       180   524.8492      -926.38064     -651.92199      4352.0945    
       190   483.33109     -924.71701      522.83548      4348.2911    
       200   391.45269     -921.75192      1673.2276      4344.6329    
       210   516.9371      -924.79449      1655.4553      4341.3978    
       220   519.6293      -924.33633      2030.3277      4338.6228    
       230   406.22999     -920.73797      2927.4327      4336.4117    
       240   465.81875     -921.96607      2957.1439      4334.9661    
       250   486.72471     -922.04691      3080.5763      4334.3213    
       260   431.92951     -920.05736      3773.8062      4334.5229    
       270   525.13792     -922.17374      4005.2277      4335.733     
       280   632.45391     -924.57785      3628.9898      4338.012     
       290   527.94113     -921.13746      3471.3109      4341.29      
       300   533.67881     -920.84146      2372.437       4345.4947    
       310   618.76696     -922.68307      769.82259      4350.3464    
       320   561.30642     -920.56108     -339.05983      4355.4424    
       330   530.96147     -919.24565     -1698.6694      4360.4587    
       340   574.27071     -919.95033     -2797.3064      4365.0377    
       350   550.6971      -918.77896     -2888.7458      4368.8983    
       360   620.7112      -920.2104      -3081.397       4371.9812    
       370   742.21356     -923.00446     -3680.3077      4374.2224    
       380   643.30156     -919.72022     -3654.86        4375.4845    
       390   543.98398     -916.5394      -3737.2497      4375.7499    
       400   630.0777      -918.49225     -4200.8366      4374.9856    
       410   643.34029     -918.36872     -3905.5217      4373.0936    
       420   603.38998     -916.79819     -3237.3211      4370.1418    
       430   629.96833     -917.08374     -2642.3028      4366.2997    
       440   614.58966     -916.1878      -1266.9467      4361.7529    
       450   658.87485     -916.95223      522.04325      4356.8697    
       460   762.3682      -919.31653      1598.4214      4352.1042    
       470   658.20667     -915.9524       3031.8232      4347.7797    
       480   636.66401     -914.95739      4384.2548      4344.2698    
       490   798.59713     -919.01717      5147.2174      4341.9269    
       500   779.88128     -918.06674      5888.2139      4340.9764    
       510   746.73617     -916.81582      5682.4539      4341.5995    
       520   865.45288     -919.82777      4155.4194      4343.7322    
       530   691.96877     -914.79326      3126.3175      4347.0195    
       540   544.54341     -910.54086      2033.53        4351.1728    
       550   761.29185     -916.35144      414.65353      4355.8885    
       560   784.40708     -916.73539     -246.29116      4360.768     
       570   599.10782     -911.38925     -285.68973      4365.6296    
       580   798.5682      -916.73038     -1896.2512      4370.3985    
       590   889.36089     -919.0384      -3086.3194      4374.6898    
       600   625.81451     -911.5996      -2952.5054      4378.1969    
       610   675.60256     -912.88785     -3692.0807      4380.8888    
       620   870.76134     -918.19031     -4648.3496      4382.5766    
       630   731.9013      -914.27368     -4276.5508      4383.0324    
       640   687.24402     -913.01798     -3890.0419      4382.3158    
       650   839.82261     -917.26078     -3777.5816      4380.5229    
       660   785.32374     -915.81211     -2965.8309      4377.7118    
       670   704.52988     -913.67487     -2095.7271      4374.0821    
       680   767.89977     -915.56469     -1132.2965      4369.8708    
       690   785.51949     -916.21703      109.07791      4365.3498    
       700   845.2266      -918.11117      712.24088      4360.8321    
       710   756.64174     -915.96701      1103.5683      4356.4924    
       720   549.97352     -910.47403      1924.7196      4352.4557    
       730   694.39582     -914.67859      2106.9159      4348.9119    
       740   823.93875     -918.52331      2586.4         4345.9369    
       750   634.56847     -913.52183      4063.2737      4343.6819    
       760   637.87179     -913.80905      4749.0233      4342.4994    
       770   866.55499     -920.40445      4581.9632      4342.5792    
       780   785.71268     -918.4952       4986.0601      4343.9251    
       790   667.5017      -915.53742      4565.3895      4346.6156    
       800   730.61774     -917.60971      2753.5837      4350.535     
       810   683.09527     -916.60298      952.59928      4355.2382    
       820   655.87095     -916.11537     -584.68759      4360.2464    
       830   693.05696     -917.40029     -1778.6161      4365.1438    
       840   647.00716     -916.34606     -2492.8451      4369.6083    
       850   631.68409     -916.10522     -3365.0441      4373.4207    
       860   663.98647     -917.15843     -3967.5784      4376.3469    
       870   671.56345     -917.50769     -4057.9221      4378.2226    
       880   695.53396     -918.30426     -4186.6127      4379.0007    
       890   697.28167     -918.48948     -4184.3818      4378.6389    
       900   629.30307     -916.71855     -3368.6939      4377.1517    
       910   685.51919     -918.37531     -2631.3049      4374.7303    
       920   763.81735     -920.65145     -2167.694       4371.569     
       930   720.65558     -919.57991     -1413.7545      4367.8078    
       940   665.79986     -918.18499     -825.52852      4363.6363    
       950   633.70956     -917.40371     -683.46529      4359.2041    
       960   552.23176     -915.19902     -271.89259      4354.5698    
       970   565.55104     -915.56789      557.18548      4349.8453    
       980   626.21999     -917.18662      1829.0009      4345.255     
       990   638.71237     -917.41633      3750.8396      4341.1495    
      1000   636.93686     -917.21333      5513.1958      4338.0307    
      1010   734.31736     -919.73674      6125.0771      4336.3555    
      1020   731.12317     -919.46103      6127.8709      4336.3158    
      1030   706.19432     -918.61432      5194.9461      4337.9148    
      1040   710.36094     -918.58726      3844.3618      4340.9316    
      1050   664.63237     -917.17879      2966.8034      4345.0375    
      1060   602.07139     -915.29377      2326.5942      4350.0021    
      1070   698.0358      -917.77641      1094.6707      4355.6413    
      1080   760.45455     -919.28674     -108.12014      4361.6493    
      1090   661.8409      -916.34568     -1198.9298      4367.7021    
      1100   679.42616     -916.64028     -2806.6494      4373.4834    
      1110   755.89132     -918.54533     -4571.8851      4378.5562    
      1120   641.94852     -915.17297     -5570.386       4382.4493    
      1130   583.34559     -913.35389     -6056.9709      4384.8613    
      1140   727.89063     -917.13063     -6133.8041      4385.636     
      1150   770.34397     -918.04296     -5464.3238      4384.7493    
      1160   702.90396     -915.95353     -4869.9995      4382.3463    
      1170   649.60829     -914.28831     -4282.7991      4378.581     
      1180   670.62211     -914.67661     -3266.1002      4373.6121    
      1190   732.15895     -916.16314     -1347.259       4367.7266    
      1200   787.33345     -917.46925      829.49683      4361.4251    
      1210   781.20828     -917.10695      2600.3488      4355.2872    
      1220   805.01751     -917.63406      3585.0821      4349.7834    
      1230   704.23974     -914.74939      4442.1141      4345.2035    
      1240   673.15908     -913.82021      4922.2204      4341.7784    
      1250   793.46968     -917.09801      4907.751       4339.6429    
      1260   768.98929     -916.39179      5011.3517      4338.823     
      1270   662.03806     -913.42774      5280.1565      4339.3633    
      1280   788.56293     -916.96464      4999.2683      4341.3329    
      1290   830.75851     -918.21177      4596.1091      4344.6903    
      1300   681.54692     -914.19108      3873.6352      4349.3457    
      1310   713.97345     -915.22382      1867.4523      4355.098     
      1320   711.80076     -915.29496     -355.76247      4361.4489    
      1330   661.17925     -914.00511     -2310.5719      4367.8098    
      1340   695.36826     -915.05829     -3967.2286      4373.6404    
      1350   663.25221     -914.25633     -4486.4092      4378.501     
      1360   688.78688     -915.04065     -4890.3235      4382.2026    
      1370   795.27481     -918.09947     -5388.3759      4384.607     
      1380   692.9088      -915.38891     -4693.9274      4385.5926    
      1390   706.40845     -915.89474     -4041.4614      4385.2971    
      1400   926.13641     -922.20283     -4363.9429      4383.8557    
      1410   783.40828     -918.56954     -3574.811       4381.2234    
      1420   566.07459     -912.79992     -2530.6313      4377.5769    
      1430   794.16597     -919.38981     -2862.7449      4373.145     
      1440   785.84483     -919.49371     -2244.2149      4367.8893    
      1450   515.94704     -912.24794     -530.81521      4361.976     
      1460   628.93677     -915.5517      -99.884844      4355.7961    
      1470   723.56153     -918.33367      732.9272       4349.5126    
      1480   582.42909     -914.53012      2698.6847      4343.3673    
      1490   618.97084     -915.60654      4310.5448      4337.855     
      1500   707.4921      -918.0989       5795.9814      4333.4281    
      1510   650.90904     -916.5425       7362.0929      4330.5102    
      1520   741.05312     -919.06771      7433.3952      4329.5004    
      1530   758.11197     -919.58959      7053.952       4330.4836    
      1540   630.35488     -916.10799      6389.0481      4333.3958    
      1550   656.05185     -916.87034      4934.7199      4338.0837    
      1560   767.86033     -920.01671      3177.6598      4344.2024    
      1570   677.32979     -917.54868      2236.3039      4351.3422    
      1580   689.17732     -917.92326      578.51445      4359.225     
      1590   739.68276     -919.36568     -1386.7747      4367.4287    
      1600   638.60133     -916.58869     -2771.4437      4375.4418    
      1610   655.3612      -917.06071     -4889.943       4382.8392    
      1620   732.91241     -919.2002      -7456.6229      4389.0251    
      1630   639.50066     -916.59222     -8762.1274      4393.2997    
      1640   532.2705      -913.57887     -9103.8342      4395.2448    
      1650   621.15292     -915.9717      -9366.784       4394.6891    
      1660   617.55235     -915.73748     -8185.9358      4391.5547    
      1670   614.03963     -915.47431     -6277.4979      4386.0997    
      1680   707.38632     -917.84472     -4189.114       4378.8079    
      1690   751.82622     -918.81348     -1438.8449      4370.2457    
      1700   766.51493     -918.96375      1547.2661      4361.1439    
      1710   838.48236     -920.73564      3551.3917      4352.2842    
      1720   801.15047     -919.53916      4812.4273      4344.2271    
      1730   681.29098     -916.11686      5578.5246      4337.331     
      1740   662.02769     -915.50433      5548.1208      4331.8088    
      1750   611.46015     -914.00437      5662.9624      4327.694     
      1760   539.0207      -911.86455      6713.8228      4325.0589    
      1770   675.71359     -915.4794       7750.2859      4324.1897    
      1780   842.16831     -919.86677      8317.4181      4325.3928    
      1790   784.43334     -918.08946      8663.0067      4328.8747    
      1800   733.31909     -916.58191      7712.7835      4334.7597    
      1810   826.29772     -919.12         4496.6283      4342.8237    
      1820   666.41678     -914.66209      1385.606       4352.3179    
      1830   512.51918     -910.34748     -1538.3231      4362.4186    
      1840   666.31198     -914.50421     -3859.2368      4372.3458    
      1850   799.23953     -918.0147      -5157.1952      4381.4576    
      1860   707.91874     -915.32022     -5761.9762      4389.3679    
      1870   746.64159     -916.27154     -7060.3014      4395.8273    
      1880   808.11677     -917.87568     -8129.7261      4400.4637    
      1890   735.30262     -915.8044      -8227.7856      4402.9576    
      1900   743.23129     -916.02304     -8637.8398      4403.1912    
      1910   769.0429      -916.78105     -8682.676       4401.0269    
      1920   698.23043     -914.89416     -7768.6359      4396.4218    
      1930   721.2039      -915.6384      -6508.1437      4389.5715    
      1940   717.58903     -915.66535     -4588.5468      4380.8063    
      1950   676.48876     -914.6531      -2210.4398      4370.6301    
      1960   751.90404     -916.8946      -26.278808      4359.6642    
      1970   716.3841      -916.08658      2624.8626      4348.5239    
      1980   667.44269     -914.91326      5454.1565      4337.9243    
      1990   777.35422     -918.20252      7468.1519      4328.6147    
      2000   723.13051     -917.03255      9083.4802      4321.1673    
      2010   561.44545     -912.84401      10301.844      4316.0413    
      2020   713.47821     -917.37604      10152.558      4313.5675    
      2030   761.13367     -919.10215      9721.4377      4313.7765    
      2040   577.58003     -914.36429      9670.8285      4316.6212    
      2050   636.71262     -916.28762      8607.0271      4322.1029    
      2060   758.40245     -919.95372      6963.6748      4330.0093    
      2070   707.2979      -918.80735      5324.1638      4339.9719    
      2080   749.35474     -920.22664      2737.8485      4351.5684    
      2090   763.16001     -920.85012     -481.93893      4364.1402    
      2100   660.03712     -918.17349     -3866.7994      4376.8307    
      2110   600.91972     -916.63344     -7375.3862      4388.6948    
      2120   533.59136     -914.77463     -10204.373      4398.7479    
      2130   535.69571     -914.77095     -11916.206      4406.1594    
      2140   694.99935     -919.09761     -12797.87       4410.3783    
      2150   652.2243      -917.80858     -12003.085      4411.1247    
      2160   557.24142     -915.08531     -10409.16       4408.5416    
      2170   750.91781     -920.36297     -9444.7414      4402.9925    
      2180   771.43525     -920.82623     -7720.4327      4394.7606    
      2190   625.84782     -916.72163     -5223.6912      4384.3035    
      2200   658.8723      -917.56751     -2909.7839      4372.2767    
      2210   694.89489     -918.45159     -97.059198      4359.3361    
      2220   635.68406     -916.65874      3237.0093      4346.2553    
      2230   713.72488     -918.64836      5953.3012      4333.9165    
      2240   723.85736     -918.73065      8217.9178      4323.0655    
      2250   608.77017     -915.34972      10141.468      4314.3203    
      2260   653.48112     -916.40817      11181.972      4308.1881    
      2270   672.06068     -916.72276      12023.854      4304.9797    
      2280   592.99203     -914.34085      12677.32       4304.9444    
      2290   704.06222     -917.24638      12266.064      4308.269     
      2300   831.34256     -920.59818      11052.562      4314.9       
      2310   768.53268     -918.75141      9122.1671      4324.5725    
      2320   694.103       -916.64653      5675.0504      4336.8006    
      2330   690.31103     -916.49484      1480.9125      4350.716     
      2340   641.49234     -915.05395     -1897.6526      4365.2405    
      2350   632.62296     -914.68185     -4666.9581      4379.4371    
      2360   711.46705     -916.70247     -7332.1673      4392.5108    
      2370   742.24822     -917.37718     -9583.4283      4403.7012    
      2380   684.08843     -915.60705     -11438.671      4412.3396    
      2390   708.69169     -916.16487     -13011.02       4417.8634    
      2400   729.10502     -916.63493     -13660.167      4419.8112    
      2410   698.3252      -915.73342     -13097.502      4417.9777    
      2420   654.00352     -914.48563     -11761.743      4412.4898    
      2430   692.8633      -915.55431     -9713.908       4403.7131    
      2440   749.63927     -917.11716     -6964.7054      4392.221     
      2450   744.38437     -916.96461     -3581.4504      4378.7906    
      2460   723.35718     -916.37427     -321.27623      4364.3497    
      2470   745.2079      -916.96652      2852.1906      4349.8078    
      2480   754.71986     -917.21527      5816.7002      4336.0272    
      2490   720.32268     -916.25159      8708.0882      4323.8122    
      2500   708.98228     -915.93228      11081.303      4313.9217    
      2510   743.56542     -916.91082      12119.294      4306.9514    
      2520   703.66615     -915.858        12589.407      4303.1874    
      2530   618.77471     -913.56617      12419.56       4302.746     
      2540   657.02481     -914.68685      11793.136      4305.5971    
      2550   761.38312     -917.65259      10524.919      4311.5784    
      2560   720.33272     -916.61264      8963.5318      4320.3901    
      2570   615.3017      -913.79381      6640.136       4331.6285    
      2580   689.57919     -915.91917      3674.2919      4344.6945    
      2590   789.2085      -918.72381      667.03919      4358.8167    
      2600   756.17851     -917.85906     -2253.1943      4373.1833    
      2610   730.62827     -917.21574     -5332.5391      4386.9802    
      2620   755.8608      -918.0025      -8460.3914      4399.342     
      2630   702.72523     -916.64659     -10873.488      4409.3989    
      2640   654.97208     -915.46761     -12277.672      4416.4682    
      2650   691.1449      -916.6706      -13323.72       4420.1233    
      2660   693.12816     -917.01002     -13792.356      4420.0712    
      2670   643.40664     -915.99265     -13136.403      4416.2032    
      2680   642.34622     -916.38487     -11649.591      4408.7109    
      2690   664.76515     -917.48996     -9360.5937      4398.0369    
      2700   622.24396     -916.79374     -6275.8943      4384.8508    
      2710   600.16431     -916.58734     -2668.8023      4370.034     
      2720   671.73968     -918.90922      909.11371      4354.5901    
      2730   726.7162      -920.73086      4095.7219      4339.4977    
      2740   637.73658     -918.48259      7405.6977      4325.6346    
      2750   569.8975      -916.70232      10187.865      4313.8548    
      2760   665.69785     -919.40857      11681.352      4304.8419    
      2770   672.36776     -919.62302      12992.791      4298.9869    
      2780   566.0586      -916.68026      14052.332      4296.5978    
      2790   632.99491     -918.53522      14091.805      4297.9049    
      2800   720.465       -920.96012      13149.735      4302.9041    
      2810   638.91138     -918.70691      11423.945      4311.3512    
      2820   663.11425     -919.39073      8287.6216      4322.7749    
      2830   709.34527     -920.65466      4532.43        4336.3655    
      2840   605.62548     -917.71978      967.73269      4351.1388    
      2850   570.45386     -916.63835     -2659.1761      4366.1174    
      2860   604.94992     -917.4124      -5777.6308      4380.3204    
      2870   598.26826     -916.9809      -8075.6231      4392.8872    
      2880   666.37716     -918.59073     -10262.778      4403.1587    
      2890   700.85383     -919.25007     -12190.442      4410.5316    
      2900   593.60142     -916.01441     -12919.121      4414.5025    
      2910   591.18808     -915.73097     -12871.754      4414.8762    
      2920   713.02849     -918.88796     -12279.954      4411.6922    
      2930   660.67792     -917.23058     -10498.261      4405.1757    
      2940   625.03333     -916.08596     -8068.6959      4395.8511    
      2950   723.01979     -918.64421     -5433.8643      4384.4258    
      2960   742.51131     -919.01754     -2241.1753      4371.6747    
      2970   703.25274     -917.78205      1085.6866      4358.4872    
      2980   719.24445     -918.08722      3903.2096      4345.7611    
      2990   721.03123     -917.9976       6470.2152      4334.2555    
      3000   738.61629     -918.36092      8757.3174      4324.6343    
      3010   744.69035     -918.43592      10036.941      4317.4486    
      3020   647.80665     -915.68193      10453.96       4313.0032    
      3030   593.91435     -914.12707      9811.5247      4311.3544    
      3040   602.26283     -914.2752       8934.1713      4312.3205    
      3050   593.6252      -913.91589      8374.0565      4315.6547    
      3060   621.00389     -914.52231      7819.8137      4321.181     
      3070   739.54393     -917.62041      6872.8286      4328.7313    
      3080   762.80021     -918.06797      5769.3774      4338.0555    
      3090   720.79624     -916.74685      3895.1582      4348.8333    
      3100   782.29599     -918.32097      1313.2357      4360.5597    
      3110   847.56256     -920.02573     -1622.6611      4372.5362    
      3120   761.49534     -917.58637     -4361.5873      4383.9738    
      3130   690.28841     -915.58546     -7222.5551      4394.1083    
      3140   725.00884     -916.52851     -9608.8708      4402.1715    
      3150   693.30468     -915.63886     -10792.152      4407.534     
      3160   633.68222     -913.98281     -10974.274      4409.8847    
      3170   682.96989     -915.34917     -10934.275      4409.1826    
      3180   757.68149     -917.43444     -10669.825      4405.4773    
      3190   692.03621     -915.65513     -9359.5622      4398.9081    
      3200   599.82697     -913.1341      -7169.9048      4389.8797    
      3210   690.46614     -915.65558     -4739.0169      4379.0245    
      3220   747.29533     -917.201       -1909.6496      4367.0489    
      3230   676.83812     -915.19651      1397.5186      4354.7534    
      3240   710.57008     -916.06001      4259.0558      4343.0149    
      3250   832.36878     -919.36305      6642.163       4332.5907    
      3260   730.13033     -916.48453      9004.6821      4324.1035    
      3270   647.19676     -914.16925      10254.928      4318.1112    
      3280   763.21759     -917.39664      10421.198      4314.8983    
      3290   765.27432     -917.50686      10696.842      4314.4968    
      3300   687.74123     -915.46233      10712.551      4316.9356    
      3310   750.6813      -917.37152      9334.6595      4322.1593    
      3320   744.43352     -917.42135      7017.4623      4329.7956    
      3330   671.68925     -915.65661      4396.1995      4339.2261    
      3340   704.55235     -916.83905      1617.4436      4349.7433    
      3350   700.92608     -917.03397     -1197.3745      4360.5953    
      3360   593.54729     -914.31081     -3317.0907      4371.0388    
      3370   625.78803     -915.41279     -5220.2528      4380.4789    
      3380   697.88919     -917.61514     -6658.3334      4388.4095    
      3390   697.55041     -917.8089      -7558.0796      4394.4473    
      3400   704.92466     -918.22887     -8448.1869      4398.3447    
      3410   673.63581     -917.57468     -8906.0037      4399.8899    
      3420   662.12991     -917.45916     -9032.6308      4398.9772    
      3430   662.53461     -917.66129     -8685.7596      4395.6077    
      3440   653.52693     -917.58602     -7453.6055      4389.9218    
      3450   631.24578     -917.10786     -5413.4236      4382.2922    
      3460   666.87879     -918.20042     -3160.4746      4373.2956    
      3470   704.59965     -919.32699     -969.49032      4363.5646    
      3480   655.05542     -918.00497      1521.7313      4353.7178    
      3490   654.58666     -918.01045      3886.3229      4344.419     
      3500   724.2884      -919.94408      5490.8272      4336.2752    
      3510   692.86939     -919.06965      6839.5701      4329.7076    
      3520   623.72484     -917.14288      7526.3307      4325.0361    
      3530   632.53206     -917.36093      7383.1033      4322.4088    
      3540   635.59908     -917.39108      6920.9973      4321.7718    
      3550   580.64581     -915.77849      6680.012       4322.9929    
      3560   586.26321     -915.80429      6556.8552      4325.9869    
      3570   666.38748     -917.83034      6155.2349      4330.6982    
      3580   680.35562     -917.96279      5444.2276      4337.0137    
      3590   735.64617     -919.21781      3981.4231      4344.7238    
      3600   765.9116      -919.76395      2139.1912      4353.4423    
      3610   691.83016     -917.44187      112.07824      4362.674     
      3620   668.03035     -916.53774     -2472.8038      4371.8564    
      3630   708.20062     -917.39407     -5078.4451      4380.2984    
      3640   675.75294     -916.23868     -6697.5381      4387.3138    
      3650   639.25022     -914.99652     -7637.6695      4392.4541    
      3660   753.82645     -917.96322     -8388.9979      4395.4599    
      3670   744.45862     -917.5235      -8125.6059      4396.162     
      3680   633.64443     -914.33136     -7165.0453      4394.6448    
      3690   705.65667     -916.2394      -6655.2107      4391.1658    
      3700   789.68223     -918.49838     -5916.2581      4385.9034    
      3710   681.96261     -915.47691     -4383.7551      4379.0995    
      3720   622.74765     -913.80996     -2894.2217      4371.1708    
      3730   689.40294     -915.61483     -1218.5326      4362.5434    
      3740   686.29538     -915.45997      1049.8376      4353.6945    
      3750   704.86254     -915.90099      3464.6233      4345.2276    
      3760   772.24133     -917.69968      5990.7755      4337.7884    
      3770   799.08527     -918.41071      7708.6871      4332.0116    
      3780   759.44045     -917.33569      8441.1887      4328.3336    
      3790   693.38682     -915.56078      8308.6455      4326.9274    
      3800   717.61928     -916.30509      7569.2546      4327.7407    
      3810   757.35722     -917.50312      6588.5877      4330.571     
      3820   673.39309     -915.28163      5432.0208      4335.1494    
      3830   622.95778     -913.96708      3678.2688      4341.1481    
      3840   702.53205     -916.2357       1778.917       4348.1053    
      3850   689.61151     -915.91933      639.69462      4355.5309    
      3860   649.79078     -914.83819     -182.09231      4363.1064    
      3870   788.06788     -918.69655     -1726.0032      4370.5813    
      3880   828.02617     -919.86565     -3295.4068      4377.5528    
      3890   698.07792     -916.36423     -4385.188       4383.6068    
      3900   698.33842     -916.48893     -5697.8978      4388.424     
      3910   724.54627     -917.34766     -6909.0776      4391.6579    
      3920   666.77381     -915.88373     -7733.267       4392.9887    
      3930   648.01219     -915.49823     -8287.3002      4392.1938    
      3940   653.51429     -915.77799     -7886.9255      4389.1519    
      3950   645.98105     -915.67925     -6189.6295      4384.0021    
      3960   677.68694     -916.65481     -4266.7254      4377.2006    
      3970   671.43119     -916.55819     -2215.0099      4369.2916    
      3980   671.40212     -916.61374     -120.93592      4360.847     
      3990   727.04456     -918.20392      1687.911       4352.4312    
      4000   730.29763     -918.34995      3720.7325      4344.5461    
      4010   679.09236     -916.99068      5897.3968      4337.733     
      4020   744.41333     -918.88751      6962.6275      4332.5275    
      4030   762.57092     -919.53237      7365.838       4329.2119    
      4040   666.60696     -917.05357      7527.1964      4327.8889    
      4050   681.71544     -917.6917       6774.2844      4328.5672    
      4060   644.27145     -916.89592      5662.5319      4331.0516    
      4070   564.53524     -914.89855      4715.3052      4335.0533    
      4080   616.91594     -916.54011      3414.3464      4340.3022    
      4090   695.80541     -918.91741      1939.6885      4346.4522    
      4100   659.56982     -918.10008      902.67452      4353.1231    
      4110   643.62808     -917.83072     -375.13223      4360.0165    
      4120   669.98535     -918.72567     -1968.8708      4366.7844    
      4130   621.93541     -917.5326      -3349.0908      4373.0058    
      4140   598.1528      -916.97552     -4562.63        4378.3007    
      4150   647.14582     -918.40758     -5483.0207      4382.34      
      4160   691.37244     -919.69443     -5883.952       4384.8801    
      4170   684.99214     -919.57958     -5936.0513      4385.8085    
      4180   661.29344     -918.98367     -5883.6199      4385.1108    
      4190   663.17811     -919.09307     -5569.1454      4382.8136    
      4200   638.5271      -918.44924     -4784.6273      4379.0167    
      4210   629.75185     -918.22005     -3835.0457      4373.9375    
      4220   642.03453     -918.53877     -2635.0157      4367.8479    
      4230   633.05787     -918.22399     -1166.9394      4361.0827    
      4240   608.15975     -917.41483      381.22058      4354.0441    
      4250   629.88718     -917.837        1806.2166      4347.1469    
      4260   640.61621     -917.87821      3357.2386      4340.7795    
      4270   633.98236     -917.37783      4992.1874      4335.3564    
      4280   662.99165     -917.81679      6029.5929      4331.2912    
      4290   704.27257     -918.56166      6533.4643      4328.8504    
      4300   662.90395     -917.03113      7035.6839      4328.1749    
      4310   646.07129     -916.23475      7068.0967      4329.3778    
      4320   711.5355      -917.74799      6457.043       4332.4613    
      4330   749.8461      -918.54459      5263.1677      4337.264     
      4340   661.93318     -915.90248      3846.2676      4343.4763    
      4350   668.61461     -915.92871      2065.3596      4350.7137    
      4360   753.08258     -918.11225      145.71693      4358.5004    
      4370   691.6488      -916.26463     -1217.5708      4366.3378    
      4380   696.16898     -916.27269     -2711.7147      4373.8313    
      4390   770.84973     -918.23199     -4033.5811      4380.5813    
      4400   794.66191     -918.81729     -5182.8004      4386.2213    
      4410   706.84429     -916.34991     -6208.4754      4390.4348    
      4420   661.141       -915.07136     -7523.2571      4392.9235    
      4430   622.25823     -913.96605     -8207.4136      4393.3559    
      4440   657.57637     -914.9047      -8267.71        4391.542     
      4450   671.38554     -915.22783     -7266.0816      4387.4876    
      4460   639.94751     -914.27734     -5300.9985      4381.4816    
      4470   741.96897     -917.01134     -3355.2402      4374.053     
      4480   770.75729     -917.70158     -1126.8271      4365.7577    
      4490   683.91762     -915.20071      1187.7321      4357.2042    
      4500   736.56011     -916.57401      3007.5979      4349.0085    
      4510   825.44923     -918.96453      4830.344       4341.6738    
      4520   717.37645     -915.92782      6771.7806      4335.6875    
      4530   729.91705     -916.27209      7572.7491      4331.5249    
      4540   835.63202     -919.25147      7590.143       4329.3951    
      4550   718.70662     -916.10974      7718.8669      4329.3175    
      4560   675.89003     -915.0531       6647.5244      4331.2827    
      4570   709.79502     -916.13503      4957.3762      4335.0188    
      4580   677.52593     -915.38511      3563.4128      4340.0929    
      4590   638.49174     -914.4317       2469.1714      4346.133     
      4600   673.55266     -915.51835      1173.9092      4352.8293    
      4610   705.67627     -916.51433     -182.88961      4359.8401    
      4620   714.65125     -916.8767      -1928.7484      4366.7848    
      4630   665.91335     -915.63783     -3601.2934      4373.2005    
      4640   646.40565     -915.1952      -4905.8758      4378.6356    
      4650   706.21726     -916.954       -5760.0643      4382.7307    
      4660   697.06633     -916.81421     -5664.8057      4385.2643    
      4670   689.03875     -916.71605     -5022.7097      4386.2556    
      4680   806.65012     -920.15793     -4788.9304      4385.8567    
      4690   787.85809     -919.90035     -4487.0191      4384.1531    
      4700   729.39609     -918.60873     -4174.2355      4381.2304    
      4710   692.26911     -917.94099     -3850.3954      4377.18      
      4720   626.75434     -916.46594     -3334.996       4372.1008    
      4730   584.14562     -915.55992     -2722.7707      4366.1383    
      4740   627.48692     -916.98848     -1914.7266      4359.4639    
      4750   609.1345      -916.65204      86.379305      4352.3358    
      4760   572.77589     -915.74077      2217.041       4345.2676    
      4770   632.0464      -917.4276       3905.5582      4338.821     
      4780   653.32252     -918.01647      5578.9054      4333.4576    
      4790   679.01322     -918.70258      6916.5208      4329.6085    
      4800   761.9447      -920.98616      7499.6195      4327.6127    
      4810   687.17481     -918.90964      7532.4675      4327.6255    
      4820   666.64469     -918.35319      6768.6079      4329.6415    
      4830   674.38832     -918.57269      5531.2288      4333.4624    
      4840   605.07318     -916.62988      4185.4962      4338.7669    
      4850   625.7452      -917.15029      2683.6465      4345.1951    
      4860   706.97971     -919.30856      905.70603      4352.3399    
      4870   650.31478     -917.61044     -517.09302      4359.7405    
      4880   638.59651     -917.14691     -1820.5443      4367.0013    
      4890   686.30925     -918.29445     -3150.0696      4373.7622    
      4900   646.85019     -916.99418     -4410.65        4379.6611    
      4910   700.72713     -918.27231     -5707.0346      4384.3451    
      4920   728.35625     -918.80425     -6546.3807      4387.4702    
      4930   630.63084     -915.87873     -6982.5129      4388.8045    
      4940   614.35517     -915.22792     -7318.5672      4388.2204    
      4950   685.13728     -916.96894     -6856.0251      4385.6489    
      4960   667.42682     -916.24684     -5186.7727      4381.2388    
      4970   677.45975     -916.31899     -3426.9888      4375.4291    
      4980   733.38191     -917.68083     -2033.6006      4368.7006    
      4990   712.21147     -916.93922     -401.49318      4361.4589    
      5000   699.17432     -916.46548      1187.7351      4354.1424    
      5010   691.06076     -916.14872      2889.0911      4347.1867    
      5020   709.44732     -916.57837      4437.4112      4341.0416    
      5030   787.98635     -918.70609      5405.9549      4336.1055    
      5040   724.15221     -916.92025      6448.9167      4332.6475    
      5050   640.64971     -914.60003      7244.1851      4330.9309    
      5060   753.30662     -917.72906      6872.5721      4331.1371    
      5070   781.17521     -918.53325      6064.9919      4333.1814    
      5080   614.34794     -913.94841      5515.7137      4336.866     
      5090   655.42124     -915.11642      4058.8837      4342.0117    
      5100   781.44547     -918.62689      2310.2119      4348.2453    
      5110   682.46284     -915.90072      1135.1506      4355.1226    
      5120   622.13014     -914.23487     -574.28662      4362.2955    
      5130   741.62784     -917.53895     -2808.3665      4369.2957    
      5140   693.8387      -916.18597     -4211.5996      4375.5503    
      5150   640.16588     -914.6689      -5134.2607      4380.6613    
      5160   712.91768     -916.64711     -5610.9028      4384.3712    
      5170   746.4465      -917.53695     -5384.1208      4386.5562    
      5180   732.84901     -917.14447     -5053.5642      4387.2646    
      5190   757.75664     -917.85136     -4942.5182      4386.5822    
      5200   768.63925     -918.20897     -4825.2365      4384.5498    
      5210   721.10172     -916.98174     -4391.4319      4381.2135    
      5220   696.01805     -916.39978     -4016.5835      4376.6863    
      5230   642.23779     -915.01403     -3424.4383      4371.0866    
      5240   637.84096     -914.97347     -2261.442       4364.5915    
      5250   696.12909     -916.65148     -473.60885      4357.525     
      5260   675.41567     -916.11844      1731.833       4350.374     
      5270   655.01534     -915.57352      3661.4248      4343.7198    
      5280   713.15074     -917.19507      4844.869       4338.0656    
      5290   728.45429     -917.63319      5827.9563      4333.7354    
      5300   689.61751     -916.58172      7080.1005      4330.9978    
      5310   735.32102     -917.89638      7493.2884      4330.1515    
      5320   764.81204     -918.79898      6799.4097      4331.2958    
      5330   698.3775      -917.07782      5745.7298      4334.2624    
      5340   653.2724      -915.95847      4326.3292      4338.7657    
      5350   666.53835     -916.45009      2727.3305      4344.4308    
      5360   650.89811     -916.12646      1335.997       4350.839     
      5370   624.16757     -915.46643      113.62339      4357.6139    
      5380   701.2299      -917.66839     -1139.3991      4364.4191    
      5390   749.95142     -919.09083     -2291.7205      4370.9159    
      5400   696.18062     -917.68945     -3406.6805      4376.7887    
      5410   677.23072     -917.26254     -4781.4066      4381.7207    
      5420   690.37509     -917.73367     -5916.6623      4385.3445    
      5430   654.21122     -916.83663     -6449.188       4387.3569    
      5440   663.02954     -917.18682     -6756.3188      4387.6011    
      5450   681.47926     -917.80902     -6517.8513      4386.0033    
      5460   623.01681     -916.28744     -5173.015       4382.6527    
      5470   643.46976     -916.92949     -3812.4394      4377.8969    
      5480   761.82726     -920.28955     -2724.8113      4372.1105    
      5490   689.77987     -918.37434     -1200.6783      4365.6204    
      5500   644.51371     -917.19797     -63.923437      4358.8225    
      5510   681.02827     -918.28115      799.34551      4352.0319    
      5520   603.13423     -916.15916      2181.1888      4345.5044    
      5530   578.98225     -915.48593      3365.9908      4339.5888    
      5540   650.61162     -917.42012      4326.4285      4334.5987    
      5550   656.30096     -917.47609      5924.4586      4330.8068    
      5560   665.09963     -917.58867      7506.3995      4328.623     
      5570   760.10487     -920.07091      7708.7173      4328.4262    
      5580   738.90355     -919.32949      7352.2532      4330.2898    
      5590   680.45134     -917.58019      6422.1408      4334.1161    
      5600   690.12107     -917.71721      4874.8378      4339.653     
      5610   693.87672     -917.66362      3296.1392      4346.5069    
      5620   713.98704     -918.04363      1154.1352      4354.2384    
      5630   669.95499     -916.62205     -899.45435      4362.2888    
      5640   602.07761     -914.52025     -2781.7643      4370.0987    
      5650   671.01717     -916.17076     -4746.947       4377.1421    
      5660   712.42035     -917.00031     -6113.3877      4382.8974    
      5670   640.6543      -914.69774     -6495.2541      4386.9935    
      5680   652.44359     -914.73526     -6405.3809      4389.3122    
      5690   782.0755      -918.02743     -6431.6424      4389.8623    
      5700   731.45825     -916.35171     -5789.3886      4388.6656    
      5710   686.1211      -914.90086     -5026.4781      4385.8876    
      5720   789.84311     -917.61688     -4166.9309      4381.7472    
      5730   815.55738     -918.21527     -3028.8733      4376.4913    
      5740   711.01774     -915.26387     -1544.1696      4370.4427    
      5750   698.25236     -914.88354     -380.27231      4363.9941    
      5760   764.95553     -916.7151       735.70423      4357.4737    
      5770   743.20458     -916.1116       2312.8424      4351.1986    
      5780   688.31488     -914.6034       3583.0367      4345.5726    
      5790   698.44149     -914.89734      4435.5791      4340.9306    
      5800   748.96803     -916.31816      5208.5901      4337.5051    
      5810   758.91875     -916.6406       5741.7584      4335.4899    
      5820   696.72056     -914.98785      6311.4723      4335.031     
      5830   665.78128     -914.19906      6074.6547      4336.2557    
      5840   775.35169     -917.32337      4774.5015      4339.0894    
      5850   753.1774      -916.82245      3698.6878      4343.218     
      5860   649.74932     -914.07261      2716.3533      4348.3477    
      5870   701.66672     -915.62168      1318.0319      4354.2014    
      5880   757.00447     -917.27456      30.391985      4360.4148    
      5890   691.80043     -915.58871     -846.99022      4366.648     
      5900   740.07929     -917.06267     -2271.4891      4372.6342    
      5910   788.37364     -918.57603     -3855.9978      4377.9917    
      5920   678.36883     -915.71751     -4653.1008      4382.3124    
      5930   657.21762     -915.30693     -5386.7727      4385.3538    
      5940   746.96518     -917.98936     -6129.1995      4386.9138    
      5950   707.58783     -917.11028     -6153.1929      4386.8078    
      5960   675.12331     -916.42076     -5616.5782      4385.0295    
      5970   714.86237     -917.74079     -5017.43        4381.719     
      5980   680.77194     -917.009       -3930.4957      4377.063     
      5990   659.83802     -916.61665     -2905.7573      4371.3527    
      6000   674.80162     -917.19999     -1857.189       4364.8771    
      6010   642.27451     -916.42918     -388.05233      4357.9376    
      6020   646.22725     -916.62985      1282.8847      4350.9335    
      6030   670.10012     -917.35268      2714.1873      4344.303     
      6040   613.8088      -915.81188      4245.8454      4338.4423    
      6050   632.14847     -916.30636      5476.9314      4333.7442    
      6060   706.9193      -918.34121      6606.3596      4330.5353    
      6070   730.84195     -918.96654      7801.3828      4329.1155    
      6080   747.23717     -919.41248      8022.2334      4329.7725    
      6090   753.12108     -919.60575      6911.5741      4332.5508    
      6100   696.42795     -918.08283      5570.455       4337.1829    
      6110   693.16538     -918.04403      3865.4888      4343.3034    
      6120   682.80543     -917.79397      1825.3773      4350.4572    
      6130   620.14094     -916.06001     -497.96208      4358.0984    
      6140   633.03966     -916.38692     -3008.9798      4365.5929    
      6150   611.02143     -915.70583     -4305.5293      4372.2927    
      6160   588.22194     -914.97818     -4970.0003      4377.8223    
      6170   654.74462     -916.70878     -5633.3469      4381.9841    
      6180   716.45603     -918.3019      -6063.9035      4384.6007    
      6190   675.42991     -917.06454     -5824.5481      4385.5685    
      6200   692.46688     -917.46165     -5471.1694      4384.9403    
      6210   725.98796     -918.32812     -4984.2105      4382.8212    
      6220   693.71486     -917.38442     -4123.4744      4379.3583    
      6230   689.14049     -917.22021     -3090.5175      4374.7896    
      6240   691.74993     -917.24998     -1831.495       4369.4066    
      6250   719.72562     -917.98133     -428.13766      4363.5555    
      6260   733.43621     -918.32253      977.23235      4357.6206    
      6270   694.9729      -917.22314      2029.706       4351.9737    
      6280   703.797       -917.44188      2798.3624      4346.8985    
      6290   684.48881     -916.87649      3541.7508      4342.6065    
      6300   626.5183      -915.22565      4182.4841      4339.2893    
      6310   654.27605     -915.93046      4520.7885      4337.1092    
      6320   705.50226     -917.26268      4627.1138      4336.1497    
      6330   642.47584     -915.41149      5059.9231      4336.4508    
      6340   650.03606     -915.50883      4783.8322      4338.0975    
      6350   730.29107     -917.59358      3973.0823      4341.021     
      6360   740.00996     -917.71445      3107.8867      4345.0136    
      6370   670.88322     -915.66232      2375.2535      4349.8477    
      6380   691.05333     -916.08724      1433.3149      4355.3175    
      6390   782.4916      -918.47214      110.71096      4361.163     
      6400   761.53145     -917.7541      -1049.9988      4367.0399    
      6410   687.96816     -915.60882     -2118.3469      4372.6284    
      6420   724.46166     -916.52272     -3468.2355      4377.6268    
      6430   801.40497     -918.56653     -4808.2345      4381.6712    
      6440   707.38511     -915.89976     -5500.3053      4384.4115    
      6450   607.71886     -913.09022     -5856.1783      4385.649     
      6460   679.76451     -915.02342     -6090.7852      4385.2809    
      6470   754.25036     -916.99986     -5560.2989      4383.2652    
      6480   690.319       -915.13875     -4232.008       4379.7577    
      6490   712.67927     -915.67751     -2996.2139      4375.1089    
      6500   784.99773     -917.59518     -1894.588       4369.6633    
      6510   735.45896     -916.14792     -616.00687      4363.7374    
      6520   680.26362     -914.55727      705.51702      4357.6788    
      6530   726.52522     -915.77382      1897.7498      4351.8398    
      6540   734.15783     -915.9068       3000.2495      4346.5449    
      6550   705.27357     -915.03153      3957.9002      4342.0851    
      6560   717.04536     -915.28538      4775.7562      4338.71      
      6570   719.34892     -915.27278      5645.274       4336.6401    
      6580   741.74456     -915.82281      6380.2736      4336.0982    
      6590   810.2736      -917.67895      6395.3836      4337.2607    
      6600   789.75854     -917.11838      5662.4273      4340.1287    
      6610   759.1586      -916.34096      4339.3271      4344.5074    
      6620   754.58188     -916.3376       2759.1026      4350.0478    
      6630   691.58942     -914.73959      1165.7945      4356.3315    
      6640   687.81614     -914.79174     -912.01697      4362.911     
      6650   715.05037     -915.7148      -2759.9628      4369.2404    
      6660   689.58793     -915.18795     -3757.545       4374.8304    
      6670   671.33181     -914.85896     -4436.2738      4379.393     
      6680   722.11437     -916.46131     -5367.1966      4382.7243    
      6690   703.81533     -916.1652      -5599.2049      4384.5995    
      6700   682.17074     -915.77895     -5325.1441      4384.9481    
      6710   746.74491     -917.8038      -4963.9365      4383.841     
      6720   746.83694     -918.07936     -4435.5047      4381.3863    
      6730   655.30193     -915.79938     -3663.6838      4377.7398    
      6740   677.51335     -916.65117     -2967.0407      4373.1097    
      6750   697.56656     -917.42752     -1850.3376      4367.709     
      6760   696.60204     -917.60375     -382.203        4361.8454    
      6770   720.05727     -918.44765      1027.5502      4355.9109    
      6780   707.07113     -918.27673      2334.9156      4350.2894    
      6790   642.80037     -916.65043      3385.9718      4345.3286    
      6800   675.84543     -917.69551      3865.162       4341.2964    
      6810   683.39268     -918.0195       4256.5896      4338.3261    
      6820   605.64001     -915.94156      4899.4166      4336.5284    
      6830   629.06847     -916.63745      4829.1052      4336.0385    
      6840   675.69258     -917.94733      4631.5502      4336.8525    
      6850   656.17861     -917.40362      4453.4545      4338.9139    
      6860   649.42543     -917.19617      3899.4779      4342.1618    
      6870   698.31806     -918.51438      3035.8441      4346.4471    
      6880   708.52301     -918.74691      2105.4485      4351.5447    
      6890   705.55407     -918.61657      818.54853      4357.1951    
      6900   672.93065     -917.65595     -549.85446      4363.0584    
      6910   683.8576      -917.89162     -2320.3275      4368.7485    
      6920   671.15828     -917.45035     -3706.1719      4373.8052    
      6930   630.49414     -916.2134      -4550.5958      4377.8511    
      6940   631.77917     -916.10876     -5206.102       4380.6473    
      6950   697.13263     -917.74168     -5728.4647      4382.0116    
      6960   652.83338     -916.2979      -5339.189       4381.8291    
      6970   657.44049     -916.19856     -4532.8891      4380.1985    
      6980   740.6896      -918.23568     -3550.836       4377.3445    
      6990   739.21696     -917.9019      -2434.5032      4373.5444    
      7000   715.29695     -916.97006     -1519.026       4369.1004    
      7010   733.72805     -917.22759     -567.26177      4364.2743    
      7020   739.87382     -917.1584       506.46485      4359.3296    
      7030   705.25303     -915.98564      1387.8408      4354.5521    
      7040   671.27986     -914.8532       1972.2276      4350.1757    
      7050   674.92596     -914.76949      2640.2372      4346.3641    
      7060   711.71088     -915.6052       3320.3436      4343.2907    
      7070   721.33987     -915.70421      4100.7008      4341.1357    
      7080   661.11663     -913.89015      4767.8673      4340.0997    
      7090   758.87226     -916.48791      4695.2169      4340.3372    
      7100   785.6661      -917.14846      4797.391       4341.8497    
      7110   700.10258     -914.74302      4704.9913      4344.6493    
      7120   768.10534     -916.6302       3534.0833      4348.6846    
      7130   858.04741     -919.174        1988.9455      4353.6566    
      7140   706.68009     -915.06255      1001.7974      4359.1721    
      7150   640.11227     -913.2835      -405.86312      4364.9345    
      7160   762.23094     -916.72239     -2215.4958      4370.5599    
      7170   761.5931      -916.76205     -3166.288       4375.5879    
      7180   712.10027     -915.46105     -3739.8363      4379.7447    
      7190   729.88344     -916.03393     -4544.3139      4382.8595    
      7200   715.25701     -915.71003     -5282.9389      4384.7223    
      7210   715.21686     -915.79532     -5834.4258      4385.1367    
      7220   727.79479     -916.24457     -5879.0348      4383.9654    
      7230   652.26668     -914.24328     -4967.3774      4381.2196    
      7240   654.93364     -914.38812     -3929.6009      4377.1377    
      7250   743.39976     -916.9071      -2977.5228      4372.0108    
      7260   693.96177     -915.59581     -1139.989       4366.1368    
      7270   703.37413     -915.91226      691.97075      4359.9973    
      7280   801.35536     -918.70489      2012.6024      4354.0806    
      7290   736.78491     -917.01736      3583.0315      4348.7646    
      7300   721.11719     -916.70514      4492.4251      4344.4425    
      7310   783.96606     -918.61297      4381.713       4341.3381    
      7320   673.28171     -915.72215      4725.2595      4339.453     
      7330   635.51111     -914.83018      4812.2874      4338.847     
      7340   725.90793     -917.49284      4239.8693      4339.5268    
      7350   684.34245     -916.49521      4074.2663      4341.3597    
      7360   666.85367     -916.15018      3665.0171      4344.2783    
      7370   748.50604     -918.56888      2406.4708      4348.1511    
      7380   661.33067     -916.2969       1422.3462      4352.6692    
      7390   636.45852     -915.72736      234.4031       4357.5499    
      7400   697.30795     -917.51702     -1179.4265      4362.4714    
      7410   670.23637     -916.85175     -2239.4037      4367.0634    
      7420   640.85273     -916.09991     -2952.816       4371.0349    
      7430   708.69156     -918.03552     -3408.6112      4374.191     
      7440   695.25946     -917.71216     -3516.4799      4376.4134    
      7450   666.96275     -916.97531     -3849.5694      4377.6615    
      7460   697.04309     -917.85487     -4299.2754      4377.8526    
      7470   702.05668     -918.042       -4083.2215      4376.8902    
      7480   667.55378     -917.13275     -3252.62        4374.8398    
      7490   677.44823     -917.4502      -2529.4203      4371.918     
      7500   705.33978     -918.26306     -1954.6868      4368.33      
      7510   697.49922     -918.08882     -1147.7406      4364.2468    
      7520   658.00333     -917.0353      -49.187071      4359.8941    
      7530   670.0601      -917.40038      926.21999      4355.566     
      7540   728.05946     -919.0407       1192.8954      4351.5071    
      7550   646.08365     -916.79887      1681.6639      4347.8129    
      7560   560.27427     -914.42417      2511.4912      4344.6121    
      7570   645.20197     -916.74197      3195.746       4342.1103    
      7580   693.82097     -917.99562      3842.4596      4340.4895    
      7590   671.09231     -917.24272      4280.0464      4339.913     
      7600   663.20499     -916.87814      4371.8707      4340.4874    
      7610   672.32691     -916.95229      4235.6179      4342.2333    
      7620   707.55053     -917.71819      3782.0645      4345.1062    
      7630   747.5686      -918.59716      2950.683       4348.9774    
      7640   729.4151      -917.86726      1954.3371      4353.6267    
      7650   732.19228     -917.73752      625.80545      4358.777     
      7660   742.20383     -917.81935     -820.81227      4364.0708    
      7670   658.68595     -915.31824     -1783.0368      4369.1304    
      7680   694.93861     -916.14469     -2807.1936      4373.6788    
      7690   792.93629     -918.66734     -3914.3288      4377.4364    
      7700   692.13706     -915.69876     -4429.2207      4380.1226    
      7710   621.46086     -913.59479     -4938.4092      4381.5847    
      7720   731.62426     -916.49287     -5499.5411      4381.6878    
      7730   692.02772     -915.21924     -5141.9667      4380.315     
      7740   603.37786     -912.60186     -4451.4441      4377.5601    
      7750   690.54359     -914.84285     -3874.4981      4373.6119    
      7760   754.97388     -916.41653     -2331.9728      4368.6701    
      7770   729.61259     -915.51371     -31.443561      4363.1589    
      7780   758.43881     -916.14117      1974.8183      4357.6836    
      7790   832.08499     -918.04367      3228.0696      4352.7764    
      7800   809.56848     -917.34264      4191.4501      4348.7862    
      7810   802.61829     -917.15521      4448.4391      4345.9468    
      7820   779.79862     -916.58985      4355.3472      4344.3273    
      7830   760.13368     -916.16684      3776.4885      4343.8867    
      7840   671.57448     -913.85131      2986.4893      4344.4676    
      7850   609.89411     -912.2521       2489.8028      4345.8606    
      7860   700.95277     -914.87041      2108.8668      4347.9223    
      7870   768.8722      -916.85782      2011.4551      4350.5535    
      7880   717.96929     -915.57491      1820.9106      4353.7139    
      7890   701.2294      -915.25306      970.61704      4357.334     
      7900   725.18579     -916.07162     -112.00531      4361.1933    
      7910   730.11913     -916.37873     -1066.6818      4365.0082    
      7920   725.24074     -916.4388      -1874.9319      4368.5156    
      7930   673.93227     -915.21426     -2324.1441      4371.5043    
      7940   671.06316     -915.32093     -2703.5693      4373.8476    
      7950   755.45185     -917.86564     -3188.4122      4375.4386    
      7960   750.98688     -917.98709     -3271.7224      4376.1655    
      7970   683.967       -916.37802     -3251.0253      4376.0036    
      7980   723.35342     -917.72663     -3379.5706      4374.9563    
      7990   733.71847     -918.28813     -2889.0599      4373.0157    
      8000   661.2967      -916.53197     -1916.4498      4370.323     
      8010   659.84499     -916.70353     -1634.0592      4367.1157    
      8020   677.14972     -917.36371     -1297.5492      4363.4982    
      8030   649.01883     -916.72096     -285.90748      4359.5814    
      8040   661.54631     -917.16578      789.62589      4355.6271    
      8050   686.15347     -917.91601      1464.7897      4351.9139    
      8060   672.94515     -917.5934       2070.9935      4348.6303    
      8070   673.46627     -917.63338      2748.0056      4345.938     
      8080   653.22637     -917.07603      3610.6725      4344.0189    
      8090   645.38422     -916.84091      4001.9748      4343.0798    
      8100   687.09486     -917.96732      3617.1276      4343.2095    
      8110   665.25543     -917.32105      3009.0589      4344.3116    
      8120   638.50134     -916.53014      2540.1613      4346.2253    
      8130   691.33518     -917.93532      2215.9935      4348.8194    
      8140   727.77204     -918.88392      1836.7683      4351.999     
      8150   687.46938     -917.71439      1126.98        4355.653     
      8160   693.05352     -917.82484      63.091165      4359.5854    
      8170   712.90763     -918.33155     -850.6618       4363.5205    
      8180   660.8434      -916.83942     -1501.6105      4367.213     
      8190   672.04175     -917.09765     -2410.9467      4370.4721    
      8200   693.16139     -917.6167      -3207.8104      4373.0615    
      8210   661.52341     -916.6654      -3572.0893      4374.7743    
      8220   651.76112     -916.31251     -3743.0227      4375.5094    
      8230   667.50156     -916.64935     -3633.2177      4375.2314    
      8240   687.36149     -917.08546     -3534.0666      4373.9684    
      8250   691.22152     -917.07335     -3235.7528      4371.7611    
      8260   630.54254     -915.26323     -2286.58        4368.7113    
      8270   653.55456     -915.75849     -1088.8948      4365.0737    
      8280   783.87816     -919.20264     -84.69666       4361.1674    
      8290   743.14334     -917.91155      1344.8752      4357.2882    
      8300   645.19793     -915.06728      2567.9467      4353.8049    
      8310   744.93152     -917.71232      2852.1097      4351.0248    
      8320   786.12419     -918.73534      2871.7343      4349.0336    
      8330   687.34862     -915.91355      3194.9669      4347.8471    
      8340   691.14778     -915.95649      3068.8637      4347.5264    
      8350   729.43679     -916.9539       2273.4552      4348.0216    
      8360   672.85746     -915.32083      2019.7064      4349.1472    
      8370   664.0892      -915.01172      2079.0132      4350.8231    
      8380   723.37262     -916.57616      1835.8932      4353.0472    
      8390   711.81427     -916.1685       1505.0154      4355.7578    
      8400   710.48633     -916.05229      850.4365       4358.8577    
      8410   740.59703     -916.80997     -164.90174      4362.1662    
      8420   735.57613     -916.60106     -980.36001      4365.4225    
      8430   718.30173     -916.06704     -1598.7541      4368.4028    
      8440   686.80203     -915.14034     -2110.5248      4370.939     
      8450   701.03514     -915.47403     -2650.4283      4372.8883    
      8460   745.25038     -916.62776     -2864.2488      4374.1155    
      8470   756.24553     -916.86488     -2684.6165      4374.5698    
      8480   724.35302     -915.92631     -2395.3205      4374.2982    
      8490   738.66409     -916.28263     -2372.2348      4373.3728    
      8500   744.87591     -916.42475     -2251.8469      4371.8166    
      8510   718.53497     -915.68006     -1761.4032      4369.6741    
      8520   706.03845     -915.33138     -1323.0923      4367.0689    
      8530   697.56451     -915.09629     -895.91858      4364.1253    
      8540   698.8914      -915.13268     -82.619688      4360.9743    
      8550   694.73648     -915.0106       1048.5146      4357.8365    
      8560   755.49984     -916.69489      1840.5677      4355.002     
      8570   808.14252     -918.18772      2409.0611      4352.686     
      8580   764.81188     -917.07812      3207.1008      4351.0495    
      8590   717.25262     -915.89205      3357.5318      4350.2795    
      8600   716.60864     -916.03302      2714.3067      4350.4082    
      8610   700.72233     -915.76392      1899.8908      4351.2708    
      8620   683.05915     -915.45002      1411.5214      4352.6543    
      8630   653.64463     -914.79585      1242.7182      4354.4265    
      8640   674.72738     -915.52666      774.71891      4356.5223    
      8650   718.94994     -916.89847      221.13566      4358.8201    
      8660   712.2679      -916.86938     -83.727383      4361.1786    
      8670   674.93385     -915.98432     -210.29797      4363.5147    
      8680   730.78432     -917.69007     -697.24952      4365.7775    
      8690   756.88441     -918.59553     -1079.4551      4367.8487    
      8700   715.24136     -917.64303     -1351.8971      4369.6247    
      8710   690.80509     -917.16961     -1882.5564      4371.0219    
      8720   686.44451     -917.2451      -2358.7718      4371.9058    
      8730   697.34618     -917.73589     -2621.5848      4372.1534    
      8740   703.7837      -918.10647     -2955.7453      4371.6878    
      8750   633.56111     -916.32619     -3066.153       4370.432     
      8760   626.90078     -916.27345     -2930.2466      4368.3573    
      8770   652.08247     -917.07278     -2218.2788      4365.5172    
      8780   625.34668     -916.39679     -918.49928      4362.1112    
      8790   633.52969     -916.65051      269.52827      4358.4773    
      8800   723.54934     -919.15388      1099.7201      4354.9344    
      8810   698.0619      -918.44619      2015.1932      4351.7184    
      8820   630.88594     -916.57362      2703.2263      4349.0662    
      8830   692.99623     -918.27244      2794.1652      4347.1487    
      8840   710.68825     -918.72504      2887.3671      4346.0004    
      8850   641.70251     -916.76536      3117.0038      4345.6469    
      8860   685.10957     -917.91245      2892.5444      4346.1282    
      8870   713.81331     -918.63037      2761.8666      4347.3971    
      8880   659.69866     -917.04258      2730.67        4349.4151    
      8890   672.67311     -917.30151      2020.9886      4352.1512    
      8900   724.69089     -918.61465      771.43307      4355.415     
      8910   678.89553     -917.19381     -14.622244      4358.896     
      8920   667.06035     -916.70383     -792.87883      4362.3641    
      8930   679.33459     -916.84501     -1554.4997      4365.609     
      8940   660.78894     -916.0949      -2111.2473      4368.4297    
      8950   652.87616     -915.60571     -2798.6345      4370.6635    
      8960   676.92424     -915.96227     -3031.9453      4372.1419    
      8970   707.93426     -916.47643     -2562.6936      4372.8115    
      8980   750.96976     -917.31997     -2272.5919      4372.7782    
      8990   750.5935      -916.98849     -2132.4435      4372.1297    
      9000   701.71355     -915.37061     -1857.1752      4370.9116    
      9010   718.20414     -915.61101     -1558.9575      4369.1998    
      9020   782.51317     -917.20883     -1417.5957      4367.073     
      9030   730.77647     -915.63713     -698.76739      4364.5928    
      9040   667.65319     -913.79036      47.171972      4361.9407    
      9050   738.95169     -915.68668      405.89893      4359.309     
      9060   784.52664     -916.88945      1152.0877      4356.8147    
      9070   747.65675     -915.84577      2195.5982      4354.6592    
      9080   779.85383     -916.76123      2567.8664      4353.0955    
      9090   784.04952     -916.94231      2596.9038      4352.2318    
      9100   711.93041     -915.0333       2599.0397      4352.0806    
      9110   694.76287     -914.6493       2027.9725      4352.6243    
      9120   717.30801     -915.36447      1116.6909      4353.7127    
      9130   653.98392     -913.68277      662.99402      4355.1165    
      9140   645.87851     -913.50487      404.77169      4356.706     
      9150   727.70036     -915.80773      256.76796      4358.4077    
      9160   733.65971     -916.00663      434.90917      4360.1896    
      9170   759.57103     -916.78336      442.96605      4362.0872    
      9180   789.76117     -917.71475      188.60884      4364.0998    
      9190   781.35755     -917.62374     -375.79516      4366.1576    
      9200   731.66472     -916.41488     -955.54498      4368.1167    
      9210   728.90942     -916.52111     -1690.3764      4369.8109    
      9220   712.98602     -916.26343     -2132.8417      4371.0552    
      9230   702.06598     -916.13817     -2323.4119      4371.7251    
      9240   720.97892     -916.83617     -2321.7599      4371.7698    
      9250   724.35779     -917.106       -2247.3204      4371.189     
      9260   682.60496     -916.11038     -2242.9945      4369.9981    
      9270   691.9962      -916.51547     -2170.1051      4368.2065    
      9280   678.07113     -916.25524     -1925.3934      4365.8376    
      9290   624.52456     -914.8581      -1445.4661      4362.9622    
      9300   645.91874     -915.50283     -818.85811      4359.7106    
      9310   686.38937     -916.64732      398.58151      4356.2663    
      9320   689.19993     -916.72984      1783.1585      4352.9491    
      9330   699.0496      -917.001        2774.3531      4350.1215    
      9340   722.10845     -917.64066      3391.4704      4348.0484    
      9350   736.17933     -918.04126      3724.4301      4346.8969    
      9360   762.33447     -918.80499      3723.2612      4346.7523    
      9370   701.28061     -917.16754      3463.2381      4347.612     
      9380   668.21204     -916.3013       2806.5953      4349.4042    
      9390   747.74723     -918.55715      1892.0647      4351.9539    
      9400   739.85013     -918.40119      1337.5727      4355.0285    
      9410   623.49452     -915.22747      735.66203      4358.4694    
      9420   647.98028     -915.93277     -625.68015      4362.0944    
      9430   715.95596     -917.8215      -1956.9325      4365.5529    
      9440   647.20394     -915.90073     -2391.3512      4368.5063    
      9450   642.92636     -915.75672     -2813.6129      4370.8093    
      9460   673.28622     -916.55005     -3320.5274      4372.3449    
      9470   654.08856     -915.95191     -3228.5569      4372.9918    
      9480   673.76019     -916.42198     -2699.5347      4372.7706    
      9490   725.55816     -917.77751     -2068.3483      4371.8204    
      9500   727.18754     -917.75009     -1547.4177      4370.3104    
      9510   743.81061     -918.16419     -1455.3522      4368.3743    
      9520   741.10369     -918.06899     -1177.5368      4366.0554    
      9530   681.08379     -916.39712     -484.17684      4363.4368    
      9540   699.94677     -916.91754     -169.14173      4360.684     
      9550   699.95353     -916.91086      165.98097      4357.8945    
      9560   649.26619     -915.48814      821.21671      4355.1679    
      9570   697.946       -916.81209      1424.4393      4352.6701    
      9580   726.61213     -917.57678      2249.3224      4350.5727    
      9590   660.05092     -915.69947      2955.8453      4349.0907    
      9600   715.93845     -917.22324      2772.4424      4348.3912    
      9610   758.2032      -918.37655      2375.2         4348.4434    
      9620   674.10509     -916.04027      2188.9599      4349.1502    
      9630   643.11032     -915.17296      1912.5491      4350.4551    
      9640   695.04328     -916.59012      1392.9853      4352.2773    
      9650   676.10161     -916.02728      1066.0014      4354.4868    
      9660   650.96235     -915.28419      849.78294      4356.9978    
      9670   718.00909     -917.08873      255.28166      4359.7378    
      9680   771.98738     -918.5386      -287.43462      4362.5581    
      9690   727.80536     -917.2958      -620.60124      4365.315     
      9700   683.08672     -916.0554      -969.149        4367.9127    
      9710   705.76318     -916.68373     -1596.1889      4370.2479    
      9720   733.37666     -917.45274     -2113.7244      4372.159     
      9730   704.31334     -916.65802     -2418.5072      4373.5057    
      9740   702.37467     -916.62098     -2711.1491      4374.1974    
      9750   723.20209     -917.21922     -2802.7132      4374.1587    
      9760   715.1718      -917.02305     -2694.1554      4373.3644    
      9770   692.20287     -916.41693     -2505.7474      4371.8374    
      9780   662.08234     -915.60024     -1935.8062      4369.6407    
      9790   686.24876     -916.27693     -1665.5066      4366.907     
      9800   691.2259      -916.41021     -1039.1194      4363.7313    
      9810   665.07697     -915.67059     -99.214589      4360.2834    
      9820   674.90828     -915.91753      549.00163      4356.8012    
      9830   706.1061      -916.74829      1401.4232      4353.4759    
      9840   714.66535     -916.95144      2381.0643      4350.5367    
      9850   733.87439     -917.46486      2823.054       4348.2291    
      9860   719.29232     -917.05568      3175.8602      4346.6883    
      9870   701.07184     -916.55822      3576.8322      4346.0103    
      9880   705.44186     -916.69107      3804.2346      4346.3009    
      9890   734.18911     -917.50914      3440.3177      4347.6139    
      9900   732.40112     -917.49671      2717.5721      4349.8614    
      9910   691.22292     -916.4002       1799.3205      4352.8569    
      9920   682.2517      -916.19374      705.28024      4356.3523    
      9930   681.50719     -916.20223     -181.90269      4360.0685    
      9940   678.82841     -916.14371     -1032.2191      4363.7562    
      9950   687.25121     -916.38188     -1484.8665      4367.1936    
      9960   703.02052     -916.81688     -2000.9538      4370.2408    
      9970   714.28649     -917.12852     -2529.5429      4372.7583    
      9980   702.62994     -916.80995     -2941.1962      4374.6019    
      9990   691.06419     -916.49618     -3258.8162      4375.654     
     10000   691.46523     -916.51402     -3330.9854      4375.8267    
     10010   694.76436     -916.60737     -3005.5932      4375.1027    
     10020   733.02326     -917.67639     -2780.4421      4373.5534    
     10030   716.09493     -917.22659     -2403.9213      4371.247     
     10040   669.63232     -915.96448     -1824.9797      4368.286     
     10050   678.74421     -916.23612     -1135.0595      4364.8236    
     10060   724.92425     -917.53271     -309.8216       4361.0462    
     10070   672.29546     -916.08502      921.45914      4357.1888    
     10080   643.21164     -915.27864      2021.3703      4353.5695    
     10090   722.93941     -917.47393      2824.5618      4350.484     
     10100   742.35718     -917.99346      3633.4879      4348.1588    
     10110   702.34154     -916.87925      4198.2376      4346.8092    
     10120   744.62606     -918.06904      3923.4638      4346.575     
     10130   764.24482     -918.66247      3258.2288      4347.4011    
     10140   672.37495     -916.19322      2704.1465      4349.1269    
     10150   615.10489     -914.67708      1738.0423      4351.5919    
     10160   668.32561     -916.20643      554.69574      4354.5459    
     10170   688.23201     -916.79314      108.13767      4357.6943    
     10180   671.47208     -916.3557       62.805017      4360.9093    
     10190   677.09457     -916.52656     -393.23923      4364.1592    
     10200   741.46268     -918.32618     -1106.5273      4367.3249    
     10210   727.21896     -917.95678     -1973.4606      4370.2113    
     10220   670.7675      -916.42799     -2818.6678      4372.5834    
     10230   641.97804     -915.65483     -3313.9994      4374.2127    
     10240   666.06581     -916.328       -3387.4232      4374.9584    
     10250   698.43517     -917.21421     -3014.7496      4374.7953    
     10260   714.65741     -917.64816     -2411.816       4373.8145    
     10270   747.05127     -918.54215     -1973.4019      4372.165     
     10280   749.37582     -918.62666     -1534.0265      4369.9691    
     10290   693.67269     -917.12253     -1031.9152      4367.3454    
     10300   669.64413     -916.49653     -650.12535      4364.424     
     10310   702.89083     -917.45702     -485.02566      4361.3037    
     10320   633.39142     -915.5511      -123.67862      4358.038     
     10330   610.39515     -914.90624      688.44424      4354.7321    
     10340   704.04686     -917.46473      1521.1628      4351.5903    
     10350   703.71197     -917.39333      2416.2119      4348.8445    
     10360   655.62739     -915.99219      3111.6448      4346.7356    
     10370   695.542       -917.01954      3361.5585      4345.4475    
     10380   727.74126     -917.81715      3635.5226      4345.0687    
     10390   705.1374      -917.09872      3773.3254      4345.6746    
     10400   682.56046     -916.38402      3517.8951      4347.3073    
     10410   702.39416     -916.83718      2771.7028      4349.9055    
[...]
     47810   669.65123     -915.89904      3777.387       4343.5139    
     47820   699.71511     -916.51692      2736.6003      4346.3176    
     47830   701.31813     -916.33146      2077.8867      4349.8988    
     47840   730.81366     -916.9233       1644.9117      4354.0815    
     47850   756.20496     -917.41137      855.22549      4358.7395    
     47860   704.06309     -915.77553     -336.58392      4363.6616    
     47870   706.61981     -915.67934     -1895.3185      4368.5239    
     47880   731.19985     -916.19765     -3155.5229      4372.914     
     47890   680.06695     -914.62822     -3808.3111      4376.4907    
     47900   691.01663     -914.79276     -4170.1725      4379.0593    
     47910   747.62866     -916.22467     -4324.9731      4380.5057    
     47920   764.47296     -916.57885     -4127.585       4380.7831    
     47930   716.848       -915.17912     -3525.8916      4379.9443    
     47940   762.90093     -916.41176     -3312.2149      4378.1232    
     47950   775.47198     -916.74708     -2812.6545      4375.3956    
     47960   714.86022     -915.08381     -1900.3377      4371.8978    
     47970   758.67724     -916.34422     -1392.4357      4367.8533    
     47980   763.21929     -916.54461     -816.10442      4363.4144    
     47990   672.10351     -914.1038       206.25963      4358.7468    
     48000   679.43115     -914.38361      1229.7741      4354.1154    
     48010   747.12774     -916.33999      2388.192       4349.8019    
     48020   716.08514     -915.56757      3545.9781      4346.1205    
     48030   714.07492     -915.61487      4065.7257      4343.3706    
     48040   752.09442     -916.79879      4440.0437      4341.7091    
     48050   715.19149     -915.93214      4779.7435      4341.2443    
     48060   699.61051     -915.67079      4618.9199      4342.065     
     48070   769.33501     -917.81891      3647.0894      4344.125     
     48080   698.47666     -916.1026       2980.0298      4347.2058    
     48090   662.33381     -915.34556      2094.4244      4351.1187    
     48100   760.28013     -918.35145      707.96741      4355.6248    
     48110   694.25269     -916.84667     -175.65796      4360.3809    
     48120   630.96991     -915.3945      -1210.3154      4365.1274    
     48130   704.703       -917.75123     -2590.755       4369.5742    
     48140   677.26942     -917.30962     -3145.5339      4373.3716    
     48150   631.83202     -916.32506     -3468.0204      4376.346     
     48160   706.89526     -918.66758     -4432.0659      4378.3758    
     48170   700.58262     -918.74101     -4775.0554      4379.2241    
     48180   641.56159     -917.30475     -4519.638       4378.7836    
     48190   664.605       -918.0941      -4297.7083      4377.1002    
     48200   663.89876     -918.18267     -3713.4823      4374.2377    
     48210   609.62065     -916.72897     -2486.2652      4370.3614    
     48220   657.2138      -918.06618     -1549.2972      4365.7737    
     48230   646.0385      -917.73644     -443.30408      4360.7471    
     48240   650.11912     -917.8136       663.311        4355.575     
     48250   668.79907     -918.27668      1528.86        4350.5535    
     48260   674.93612     -918.38494      2226.9953      4345.9176    
     48270   631.39185     -917.1012       3307.295       4341.875     
     48280   669.64328     -918.07584      4115.9888      4338.6999    
     48290   682.10279     -918.31758      4930.9756      4336.6236    
     48300   662.35373     -917.66269      5556.4797      4335.867     
     48310   703.58409     -918.69799      5402.5742      4336.5924    
     48320   700.29453     -918.49832      4687.8321      4338.7748    
     48330   636.22056     -916.61293      3903.5105      4342.248     
     48340   664.69688     -917.28585      2738.0539      4346.8036    
     48350   679.31895     -917.54193      1375.1489      4352.144     
     48360   632.97436     -916.09061      73.100453      4357.9127    
     48370   650.57929     -916.39077     -1264.3062      4363.7549    
     48380   715.17948     -917.96037     -2416.8219      4369.312     
     48390   711.09806     -917.61379     -3364.3632      4374.2636    
     48400   666.18943     -916.1528      -4211.3514      4378.3398    
     48410   673.143       -916.13402     -4879.2606      4381.2988    
     48420   730.58466     -917.50931     -5038.2163      4382.9552    
     48430   757.84683     -918.05964     -4812.4516      4383.2491    
     48440   720.95838     -916.86996     -4450.7943      4382.227     
     48450   696.97507     -916.07074     -4396.5378      4379.9698    
     48460   682.29519     -915.54055     -3862.6291      4376.507     
     48470   662.9422      -914.87645     -2964.9593      4371.9725    
     48480   707.6503      -915.98105     -1898.8509      4366.6016    
     48490   721.64189     -916.22226     -343.26132      4360.6901    
     48500   728.06739     -916.2627       1436.8511      4354.6616    
     48510   750.02273     -916.74684      2898.7955      4348.9842    
     48520   745.17415     -916.50987      4184.3934      4344.0587    
     48530   743.22503     -916.38172      5022.4233      4340.2299    
     48540   756.12628     -916.69696      5227.7476      4337.727     
     48550   728.48805     -915.91998      5279.1961      4336.6213    
     48560   677.38803     -914.50771      5223.6677      4336.9393    
     48570   699.47641     -915.13069      4381.4707      4338.6536    
     48580   693.87614     -914.9812       3756.9648      4341.5833    
     48590   672.33921     -914.38415      3108.8519      4345.561     
     48600   733.38159     -916.07279      2334.4009      4350.4197    
     48610   810.19218     -918.22081      1494.8565      4355.9634    
     48620   756.04023     -916.7793       537.0098       4361.9703    
     48630   748.92782     -916.6926      -995.62107      4368.1712    
     48640   718.14774     -915.97722     -2772.1649      4374.1582    
     48650   686.65656     -915.25987     -4563.0413      4379.4415    
     48660   688.64675     -915.48498     -5737.2656      4383.5378    
     48670   702.16847     -916.05644     -6232.5143      4386.1066    
     48680   695.96774     -916.11033     -6043.2671      4386.9975    
     48690   703.80685     -916.58709     -5784.5265      4386.2315    
     48700   715.8978      -917.2181      -5360.9479      4383.873     
     48710   718.57145     -917.62604     -4568.3511      4380.0332    
     48720   693.13609     -917.26867     -3687.0378      4374.9145    
     48730   664.68212     -916.81291     -2557.3714      4368.7585    
     48740   632.09088     -916.19097     -950.3233       4361.8801    
     48750   658.40086     -917.15302      759.64297      4354.7051    
     48760   675.08754     -917.80664      2426.5279      4347.6957    
     48770   677.33176     -918.02405      3703.5548      4341.2959    
     48780   668.44612     -917.90009      4908.2546      4335.8628    
     48790   656.61936     -917.66068      5939.0373      4331.7188    
     48800   687.25196     -918.5774       6748.5897      4329.1475    
     48810   691.50427     -918.75517      7236.7265      4328.3703    
     48820   622.49504     -916.88173      7138.7249      4329.5283    
     48830   652.0734      -917.72397      5986.2439      4332.5982    
     48840   685.0313      -918.63783      4687.3257      4337.3126    
     48850   645.9281      -917.53542      3602.0714      4343.3522    
     48860   665.69077     -918.04942      1958.1438      4350.4176    
     48870   685.43049     -918.54014      8.4431927      4358.0843    
     48880   632.30213     -916.98676     -1941.5319      4365.8327    
     48890   662.17371     -917.71578     -3723.3296      4373.1321    
     48900   704.32232     -918.76401     -4933.1674      4379.4953    
     48910   625.56778     -916.45249     -5636.5869      4384.5738    
     48920   630.13096     -916.44978     -6478.0485      4388.1401    
     48930   692.21698     -918.02153     -7011.6302      4389.957     
     48940   682.04796     -917.58764     -6745.3237      4389.8747    
     48950   676.51408     -917.30012     -6257.9856      4387.9355    
     48960   690.33123     -917.55923     -5784.6843      4384.2565    
     48970   645.64225     -916.20014     -4617.7603      4378.9794    
     48980   652.37555     -916.26669     -2888.0903      4372.4139    
     48990   720.96072     -918.03419     -899.65752      4365.0253    
     49000   715.1723      -917.73796      1252.2581      4357.3568    
     49010   725.95674     -917.92266      2855.9563      4349.9772    
     49020   752.78917     -918.57732      3876.0619      4343.3196    
     49030   675.42039     -916.36239      5006.9194      4337.6819    
     49040   634.92534     -915.17511      5888.1592      4333.3603    
     49050   677.82131     -916.29003      6365.3615      4330.5914    
     49060   670.2992      -915.99729      6774.3631      4329.5208    
     49070   656.43572     -915.52913      6971.5753      4330.2667    
     49080   750.69229     -918.0685       6360.6154      4332.8827    
     49090   744.05941     -917.82725      5614.5173      4337.2418    
     49100   681.48868     -916.06472      4596.5525      4343.1595    
     49110   712.47258     -916.90403      2673.6767      4350.3638    
     49120   738.16892     -917.59433      490.83532      4358.3638    
     49130   702.91346     -916.59794     -1302.6562      4366.5915    
     49140   688.4843      -916.17806     -3181.3307      4374.5418    
     49150   686.58689     -916.09447     -4946.3495      4381.6988    
     49160   667.95433     -915.53343     -6286.3249      4387.5715    
     49170   703.22397     -916.46315     -7381.3797      4391.7662    
     49180   718.58616     -916.84604     -7583.207       4393.9774    
     49190   690.0033      -916.02353     -6987.8551      4394.1289    
     49200   721.41418     -916.87874     -6548.2423      4392.3454    
     49210   752.00009     -917.72914     -5978.3689      4388.745     
     49220   714.09504     -916.70198     -4926.5212      4383.487     
     49230   706.39741     -916.52755     -3869.8606      4376.8425    
     49240   703.48447     -916.488       -2373.4841      4369.112     
     49250   660.89884     -915.33459     -343.87717      4360.7057    
     49260   666.11502     -915.4837       1495.2406      4352.1594    
     49270   699.32711     -916.38689      3270.8136      4343.9771    
     49280   677.11455     -915.73184      5624.2608      4336.6605    
     49290   699.50718     -916.30423      7287.0445      4330.8079    
     49300   745.5818      -917.53375      8177.5045      4326.8702    
     49310   754.67655     -917.76326      8599.8673      4325.1015    
     49320   748.33217     -917.60898      8353.3196      4325.624     
     49330   715.92631     -916.77603      7318.4427      4328.3816    
     49340   672.65147     -915.66731      6105.8208      4333.1351    
     49350   685.0042      -916.11484      4605.4279      4339.5759    
     49360   693.97495     -916.48017      2829.4173      4347.3195    
     49370   671.66775     -915.978        976.92379      4355.9083    
     49380   727.35109     -917.65425     -1103.8142      4364.8396    
     49390   726.38348     -917.78379     -2837.9948      4373.5633    
     49400   668.95624     -916.36069     -4531.689       4381.5869    
     49410   667.83211     -916.49555     -6414.9502      4388.4278    
     49420   676.02608     -916.89291     -8093.5611      4393.5578    
     49430   618.19346     -915.44089     -8707.9638      4396.5161    
     49440   662.51013     -916.81196     -8648.908       4397.0983    
     49450   728.47936     -918.80016     -7839.1444      4395.3091    
     49460   692.5066      -917.97346     -6553.4007      4391.3542    
     49470   703.61531     -918.46121     -5377.9136      4385.566     
     49480   711.47241     -918.87084     -4178.5353      4378.2699    
     49490   625.21593     -916.64753     -2701.5251      4369.8015    
     49500   619.04136     -916.60303     -1073.1232      4360.5641    
     49510   639.29078     -917.25083      702.62289      4351.0016    
     49520   598.41772     -916.14551      3338.2176      4341.6205    
     49530   679.67413     -918.38553      5699.2572      4333.0992    
     49540   765.9285      -920.75068      7556.1579      4326.0717    
     49550   673.76963     -918.17875      9202.1466      4321.0457    
     49560   633.58345     -917.05413      9923.079       4318.4445    
     49570   686.72876     -918.51458      9539.0687      4318.4643    
     49580   629.35345     -916.89397      8667.0833      4321.033     
     49590   634.03179     -916.9796       7300.248       4325.9383    
     49600   704.19427     -918.84992      5511.59        4332.8366    
     49610   615.11045     -916.26734      3984.0214      4341.2911    
     49620   619.13        -916.2395       1791.9319      4350.8794    
     49630   745.94747     -919.54397     -660.56592      4361.0278    
     49640   689.61099     -917.72342     -2326.3575      4371.1014    
     49650   677.44578     -917.1384      -4209.1124      4380.6107    
     49660   726.10482     -918.21231     -6421.0314      4389.0245    
     49670   666.24501     -916.27103     -8113.0282      4395.7357    
     49680   648.95101     -915.52944     -9146.2113      4400.2609    
     49690   731.80249     -917.56034     -9839.6454      4402.281     
     49700   691.08904     -916.17716     -9330.3364      4401.6163    
     49710   690.00451     -915.94268     -8325.6912      4398.3726    
     49720   757.18684     -917.62247     -7280.3452      4392.813     
     49730   685.09144     -915.46929     -5517.5401      4385.2461    
     49740   637.77391     -914.02946     -3190.3521      4376.1556    
     49750   760.18207     -917.28802     -1129.1192      4366.1626    
     49760   753.48986     -916.96478      1286.0892      4355.8554    
     49770   684.00822     -914.92743      3908.41        4345.8908    
     49780   743.71277     -916.48687      5775.5721      4336.9508    
     49790   744.33458     -916.42063      7366.8398      4329.5502    
     49800   695.5092      -915.00835      8732.8265      4324.1141    
     49810   744.87883     -916.34733      9184.6339      4320.9867    
     49820   754.14658     -916.60672      9199.6561      4320.3006    
     49830   698.55582     -915.09964      9236.1135      4322.0844    
     49840   719.88195     -915.74881      8342.8785      4326.3368    
     49850   752.84411     -916.74022      6407.9849      4332.8317    
     49860   712.69269     -915.71688      4585.143       4341.1041    
     49870   702.73273     -915.5298       2471.9337      4350.6638    
     49880   737.26265     -916.57306     -110.29022      4360.9446    
     49890   695.911       -915.49816     -2254.4187      4371.2741    
     49900   709.52723     -915.93865     -4193.9785      4381.052     
     49910   766.53566     -917.58968     -6274.9936      4389.7265    
     49920   735.09445     -916.81067     -8001.4158      4396.7232    
     49930   664.64823     -914.95412     -9144.8208      4401.5518    
     49940   691.80157     -915.80793     -9877.5662      4403.8725    
     49950   707.23274     -916.34747     -9862.2242      4403.4812    
     49960   673.08863     -915.51963     -9149.6073      4400.3721    
     49970   703.51671     -916.48721     -7975.31        4394.7352    
     49980   725.17334     -917.22386     -5930.0025      4386.913     
     49990   656.70496     -915.44294     -3447.1526      4377.466     
     50000   721.56346     -917.34889     -1382.7121      4367.0621    
Loop time of 13.389 on 1 procs for 50000 steps with 216 atoms

Performance: 322.653 ns/day, 0.074 hours/ns, 3734.405 timesteps/s, 806.631 katom-step/s
99.1% CPU use with 1 MPI tasks x 1 OpenMP threads

MPI task timing breakdown:
Section |  min time  |  avg time  |  max time  |%varavg| %total
---------------------------------------------------------------
Pair    | 12.836     | 12.836     | 12.836     |   0.0 | 95.87
Neigh   | 0          | 0          | 0          |   0.0 |  0.00
Comm    | 0.14171    | 0.14171    | 0.14171    |   0.0 |  1.06
Output  | 0.041996   | 0.041996   | 0.041996   |   0.0 |  0.31
Modify  | 0.33373    | 0.33373    | 0.33373    |   0.0 |  2.49
Other   |            | 0.03536    |            |       |  0.26

Nlocal:            216 ave         216 max         216 min
Histogram: 1 0 0 0 0 0 0 0 0 0
Nghost:            950 ave         950 max         950 min
Histogram: 1 0 0 0 0 0 0 0 0 0
Neighs:              0 ave           0 max           0 min
Histogram: 1 0 0 0 0 0 0 0 0 0
FullNghs:         7344 ave        7344 max        7344 min
Histogram: 1 0 0 0 0 0 0 0 0 0

Total # of neighbors = 7344
Ave neighs/atom = 34
Neighbor list builds = 0
Dangerous builds = 0


min_style cg
minimize 1e-10 1e-10 5000 10000
Per MPI rank memory allocation (min/avg/max) = 5.612 | 5.612 | 5.612 Mbytes
   Step          Temp          PotEng         Press          Volume    
     50000   721.56346     -917.34889     -1382.7121      4367.0621    
     50010   721.56346     -936.55997     -4762.63        4367.0621    
     50020   721.56346     -936.57803     -4762.0904      4367.0621    
     50027   721.56346     -936.57806     -4762.0886      4367.0621    
Loop time of 0.00700667 on 1 procs for 27 steps with 216 atoms

98.3% CPU use with 1 MPI tasks x 1 OpenMP threads

Minimization stats:
  Stopping criterion = energy tolerance
  Energy initial, next-to-last, final = 
     -917.348894336951  -936.578055969277  -936.578056053223
  Force two-norm initial, final = 25.474141 0.0010217437
  Force max component initial, final = 3.194739 0.00013396253
  Final line search alpha, max atom move = 1 0.00013396253
  Iterations, force evaluations = 27 53

MPI task timing breakdown:
Section |  min time  |  avg time  |  max time  |%varavg| %total
---------------------------------------------------------------
Pair    | 0.0063988  | 0.0063988  | 0.0063988  |   0.0 | 91.32
Neigh   | 0          | 0          | 0          |   0.0 |  0.00
Comm    | 0.00015181 | 0.00015181 | 0.00015181 |   0.0 |  2.17
Output  | 1.7062e-05 | 1.7062e-05 | 1.7062e-05 |   0.0 |  0.24
Modify  | 0          | 0          | 0          |   0.0 |  0.00
Other   |            | 0.000439   |            |       |  6.27

Nlocal:            216 ave         216 max         216 min
Histogram: 1 0 0 0 0 0 0 0 0 0
Nghost:            950 ave         950 max         950 min
Histogram: 1 0 0 0 0 0 0 0 0 0
Neighs:              0 ave           0 max           0 min
Histogram: 1 0 0 0 0 0 0 0 0 0
FullNghs:         7562 ave        7562 max        7562 min
Histogram: 1 0 0 0 0 0 0 0 0 0

Total # of neighbors = 7562
Ave neighs/atom = 35.009259
Neighbor list builds = 0
Dangerous builds = 0
variable teng equal "c_eatoms"
variable natoms equal "count(all)"
variable ecoh equal "v_teng/v_natoms"
variable lengthx equal lx/${xdim}
variable lengthx equal lx/3
variable lengthy equal ly/${ydim}
variable lengthy equal ly/3
variable lengthz equal lz/${zdim}
variable lengthz equal lz/3

print "cohesive energy: ${ecoh}"
cohesive energy: -4.33600951876492
print "x_length equals: ${lengthx}"
x_length equals: 5.44847801317444
print "y_length equals: ${lengthy}"
y_length equals: 5.44847801317444
print "z_length equals: ${lengthz}"
z_length equals: 5.44847801317444

variable lp_x equal ${lengthx}
variable lp_x equal 5.44847801317444
variable lp_y equal ${lengthy}
variable lp_y equal 5.44847801317444
variable lp_z equal ${lengthz}
variable lp_z equal 5.44847801317444

variable lp_avg equal "(v_lp_x + v_lp_y + v_lp_z) / 3"

print "lattice parameter equals ${lp_avg}"
lattice parameter equals 5.44847801317444
Total wall time: 0:00:13
