

# ------------------ Initialization ------------------
units           metal
boundary        p p p
atom_style      atomic

# ------------------ Geometry Generation -------------
# Silicon diamond cubic lattice constant is 5.431 Angstroms

variable pwd_path getenv PWD

variable structure_file string ../structures/si_structure.txt

read_data ../structures/si_structure.txt
Reading data file ...
  orthogonal box = (0 0 0) to (10.86 10.86 10.86)
  1 by 1 by 1 MPI processor grid
  reading atoms ...
  64 atoms
  read_data CPU = 0.000 seconds

# ------------------ Interatomic Potential -----------
# Using the standard Stillinger-Weber (SW) potential
pair_style      sw
pair_coeff      * * ../potentials/Si.sw Si
Reading sw potential file ../potentials/Si.sw with DATE: 2007-06-11


# ------------------ Compute -----------------
compute eng all pe/atom 	# a variable named 'eng' is defined to store the potential energy for each atom
compute eatoms all reduce sum c_eng  #a variable named 'eatoms' is defined to store the sum of all 'eng' values
compute new all temp


# ------------------ Energy Minimization -------------
# Relax the structure to remove any initial overlapping/strain
thermo          10
thermo_style    custom step temp pe press vol

minimize 1.0e-6 1.0e-6 5000 10000
Neighbor list info ...
  update: every = 1 steps, delay = 0 steps, check = yes
  max neighbors/atom: 2000, page size: 100000
  master list distance cutoff = 5.77118
  ghost atom cutoff = 5.77118
  binsize = 2.88559, bins = 4 4 4
  1 neighbor lists, perpetual/occasional/extra = 1 0 0
  (1) pair sw, perpetual
      attributes: full, newton on
      pair build: full/bin/atomonly
      stencil: full/bin/3d
      bin: standard
Per MPI rank memory allocation (min/avg/max) = 4.324 | 4.324 | 4.324 Mbytes
   Step          Temp          PotEng         Press          Volume    
         0   0             -277.54229      532.56802      1280.8241    
         1   0             -277.54229      532.56802      1280.8241    
Loop time of 0.000117242 on 1 procs for 1 steps with 64 atoms

57.1% CPU use with 1 MPI tasks x 1 OpenMP threads

Minimization stats:
  Stopping criterion = quadratic factors are zero
  Energy initial, next-to-last, final = 
     -277.542288309725  -277.542288309725  -277.542288309725
  Force two-norm initial, final = 6.5340591e-18 6.5340591e-18
  Force max component initial, final = 8.6736174e-19 8.6736174e-19
  Final line search alpha, max atom move = 1 8.6736174e-19
  Iterations, force evaluations = 1 2

MPI task timing breakdown:
Section |  min time  |  avg time  |  max time  |%varavg| %total
---------------------------------------------------------------
Pair    | 0.00010143 | 0.00010143 | 0.00010143 |   0.0 | 86.52
Neigh   | 0          | 0          | 0          |   0.0 |  0.00
Comm    | 5.52e-06   | 5.52e-06   | 5.52e-06   |   0.0 |  4.71
Output  | 0          | 0          | 0          |   0.0 |  0.00
Modify  | 0          | 0          | 0          |   0.0 |  0.00
Other   |            | 1.029e-05  |            |       |  8.78

Nlocal:             64 ave          64 max          64 min
Histogram: 1 0 0 0 0 0 0 0 0 0
Nghost:            557 ave         557 max         557 min
Histogram: 1 0 0 0 0 0 0 0 0 0
Neighs:              0 ave           0 max           0 min
Histogram: 1 0 0 0 0 0 0 0 0 0
FullNghs:         2176 ave        2176 max        2176 min
Histogram: 1 0 0 0 0 0 0 0 0 0

Total # of neighbors = 2176
Ave neighs/atom = 34
Neighbor list builds = 0
Dangerous builds = 0

# ------------------ Equilibration (NVT/NPT) ---------
reset_timestep  0
velocity all create ${temperature} 87287 loop geom
velocity all create 300 87287 loop geom

# Reference timestep for metal units with Silicon is typically 1-2 fs
timestep        0.001


# Tdamp - 100*Timestep
# Pdamp - 1000*Timestep
#
# Run NPT to fix temperature at 300K and pressure at 0 Bar
fix 1 all npt temp ${temperature} ${temperature} 0.1 iso ${pressure} ${pressure} 1.0
fix 1 all npt temp 300 ${temperature} 0.1 iso ${pressure} ${pressure} 1.0
fix 1 all npt temp 300 300 0.1 iso ${pressure} ${pressure} 1.0
fix 1 all npt temp 300 300 0.1 iso 0.0 ${pressure} 1.0
fix 1 all npt temp 300 300 0.1 iso 0.0 0.0 1.0

# Output settings

variable dump_path string "../results/lattice_parameter/si_out_${temperature}.dat"
../results/lattice_parameter/si_out_300.dat

dump 1 all custom 5000 ${dump_path} mass type xs ys zs
dump 1 all custom 5000 ../results/lattice_parameter/si_out_300.dat mass type xs ys zs
print "Hii"
Hii
dump_modify 1 sort id

variable first_run_step equal ${steps}
variable first_run_step equal 50000

# Run the simulation
run ${first_run_step}
run 50000
Per MPI rank memory allocation (min/avg/max) = 3.199 | 3.199 | 3.199 Mbytes
   Step          Temp          PotEng         Press          Volume    
         0   300           -277.54229      2569.8731      1280.8241    
        10   162.37731     -276.41796      2691.648       1281.065     
        20   92.449506     -275.84148      1904.5344      1281.7865    
        30   178.56849     -276.51934      274.0599       1282.845     
        40   106.27319     -275.88913     -580.99786      1283.9726    
        50   82.933758     -275.67172     -1224.1469      1284.9996    
        60   208.38931     -276.63413     -1943.315       1285.8014    
        70   169.04024     -276.23436     -1724.1718      1286.2664    
        80   132.65576     -275.89151     -1525.3045      1286.4163    
        90   220.96419     -276.55832     -1785.8488      1286.2785    
       100   167.59785     -276.06844     -1226.6765      1285.8302    
       110   141.22459     -275.81727     -444.43012      1285.1624    
       120   239.45227     -276.56536     -63.071319      1284.4073    
       130   194.26026     -276.13382      745.82007      1283.6532    
       140   165.66992     -275.85267      1283.6351      1283.0347    
       150   235.09658     -276.35579      1204.4044      1282.6438    
       160   185.98473     -275.88543      1343.8291      1282.4828    
       170   142.48028     -275.47959      1203.9612      1282.5671    
       180   175.07677     -275.68716      625.47266      1282.8671    
       190   133.68644     -275.28865      641.73585      1283.2968    
       200   194.24061     -275.72254      765.32077      1283.8495    
       210   322.30555     -276.66511      519.00546      1284.5416    
       220   270.9964      -276.14642      252.28674      1285.3378    
       230   227.45924     -275.72244     -431.29734      1286.1812    
       240   266.371       -275.96768     -1465.1984      1286.9454    
       250   186.33225     -275.24719     -1889.3723      1287.457     
       260   180.22714     -275.14485     -2131.1581      1287.6268    
       270   274.9751      -275.83922     -2318.5764      1287.4062    
       280   226.22094     -275.35642     -1697.1328      1286.7753    
       290   201.59752     -275.09028     -687.07214      1285.8398    
       300   280.89971     -275.65563      316.5597       1284.7788    
       310   245.29032     -275.27724      1529.0401      1283.7836    
       320   251.9861      -275.25787      2191.5136      1283.0627    
       330   337.58993     -275.86631      2316.2569      1282.7386    
       340   293.15271     -275.41913      2530.1937      1282.8482    
       350   265.63155     -275.13058      2175.5588      1283.4193    
       360   299.57089     -275.34053      1191.9742      1284.388     
       370   279.67666     -275.1114       178.63077      1285.5869    
       380   318.69582     -275.36422     -989.14715      1286.8268    
       390   308.29174     -275.21167     -1818.1571      1287.9007    
       400   177.70769     -274.09768     -2029.169       1288.66      
       410   268.14069     -274.78563     -2657.1648      1289.0411    
       420   380.07959     -275.61384     -2738.6421      1288.9448    
       430   264.46324     -274.60244     -1560.9222      1288.3693    
       440   327.48646     -275.06141     -763.26249      1287.4995    
       450   436.30998     -275.87871     -8.4190045      1286.4904    
       460   269.72222     -274.47577      1439.8136      1285.4981    
       470   299.7418      -274.6901       1674.8942      1284.7514    
       480   434.1773      -275.74487      1253.5286      1284.3053    
       490   274.60427     -274.42174      1707.1705      1284.1128    
       500   236.91809     -274.10098      1559.2319      1284.2286    
       510   367.07359     -275.13724      756.15884      1284.6252    
       520   265.63723     -274.28749      915.64119      1285.1884    
       530   291.57022     -274.47968      819.96679      1285.9247    
       540   487.40093     -276.04997     -91.691108      1286.8086    
       550   364.0253      -275.047       -628.49844      1287.6985    
       560   237.8429      -274.031       -1582.5517      1288.4772    
       570   323.81945     -274.73966     -2693.4112      1288.9678    
       580   319.84969     -274.71772     -2293.2656      1288.9939    
       590   320.58975     -274.73738     -1443.4572      1288.6075    
       600   410.79316     -275.49801     -1038.2498      1287.9483    
       610   347.94587     -275.03057     -256.36872      1287.1084    
       620   295.9541      -274.65173      267.056        1286.2183    
       630   319.76795     -274.8929       393.04043      1285.3707    
       640   255.51537     -274.41301      1013.0455      1284.6059    
       650   274.16155     -274.59743      1516.3353      1284.0262    
       660   362.91932     -275.36177      1622.4531      1283.7198    
       670   296.82461     -274.87124      2123.8594      1283.7255    
       680   307.63187     -275.00224      2090.5791      1284.1197    
       690   388.55326     -275.71901      1125.8457      1284.8933    
       700   306.28269     -275.11615      73.604211      1285.8887    
       710   262.02157     -274.80696     -1098.8621      1286.91      
       720   300.15286     -275.16699     -1968.1883      1287.7456    
       730   216.71268     -274.52678     -1701.2382      1288.2488    
       740   256.94126     -274.87848     -1521.3439      1288.4424    
       750   408.46196     -276.14713     -1798.6818      1288.3515    
       760   332.68616     -275.58292     -1443.5387      1287.9452    
       770   222.13141     -274.72207     -1022.1245      1287.275     
       780   270.97103     -275.15024     -1024.4554      1286.4057    
       790   227.86294     -274.82327     -258.69828      1285.3583    
       800   204.89489     -274.64577      976.78185      1284.2667    
       810   340.24429     -275.75197      1833.1843      1283.3423    
       820   353.67776     -275.86939      2713.9145      1282.7562    
       830   299.79436     -275.4467       2911.7874      1282.6603    
       840   291.32202     -275.3958       2131.5086      1283.0897    
       850   248.04803     -275.0576       1231.5926      1283.9219    
       860   245.97805     -275.04744      269.347        1284.9947    
       870   286.88258     -275.38121     -731.0686       1286.1329    
       880   237.62187     -274.9751      -1132.0594      1287.1648    
       890   242.44348     -275.00312     -1577.2487      1288.0022    
       900   333.15612     -275.72099     -2347.0107      1288.554     
       910   276.01223     -275.23226     -2300.0372      1288.6964    
       920   260.98688     -275.08889     -1971.4935      1288.422     
       930   328.72034     -275.61142     -1771.1808      1287.7794    
       940   239.98771     -274.85748     -759.37144      1286.8212    
       950   234.68273     -274.78406      415.91433      1285.7186    
       960   383.06848     -275.94069      1103.6799      1284.6764    
       970   354.57559     -275.65181      1912.2284      1283.837     
       980   270.96915     -274.93337      2229.3048      1283.34      
       990   299.72337     -275.1318       1657.7589      1283.2389    
      1000   249.8339      -274.68568      1284.6151      1283.4523    
      1010   181.07662     -274.09031      1329.3356      1283.9185    
      1020   296.70492     -274.98222      924.50952      1284.6326    
      1030   387.69815     -275.6442       326.98961      1285.5302    
      1040   328.39451     -275.09553      88.371856      1286.5157    
      1050   317.86607     -274.96292     -430.12414      1287.5336    
      1060   365.06844     -275.30403     -1286.7237      1288.4869    
      1070   344.12721     -275.10035     -1874.3428      1289.2269    
      1080   321.99032     -274.89985     -2371.3552      1289.6363    
      1090   333.66022     -274.98165     -2876.6464      1289.6146    
      1100   294.77314     -274.65805     -2729.6929      1289.0726    
      1110   228.46498     -274.11137     -1786.9623      1288.0327    
      1120   294.77062     -274.63867     -772.40153      1286.6497    
      1130   372.12077     -275.25012      562.05021      1285.114     
      1140   319.48148     -274.81084      2342.0304      1283.6749    
      1150   296.97574     -274.62181      3541.3136      1282.6445    
      1160   383.92251     -275.32888      3699.4373      1282.2408    
      1170   340.71378     -274.98867      3575.531       1282.5186    
      1180   301.06501     -274.68314      2702.6109      1283.457     
      1190   407.87218     -275.57883      1002.7152      1284.9048    
      1200   382.31851     -275.41798     -303.20335      1286.5809    
      1210   244.35581     -274.33958     -1469.3294      1288.2412    
      1220   241.1121      -274.34136     -3021.5627      1289.6557    
      1230   302.18473     -274.86536     -4078.1666      1290.5442    
      1240   279.96513     -274.71134     -4054.4014      1290.7093    
      1250   293.64639     -274.84874     -3620.5         1290.1288    
      1260   313.46678     -275.03919     -2495.6406      1288.8772    
      1270   286.46349     -274.84602     -438.92596      1287.1604    
      1280   364.46336     -275.50993      1371.1101      1285.3323    
      1290   403.42409     -275.87496      2769.4366      1283.728     
      1300   329.37362     -275.33393      3535.943       1282.607     
      1310   299.7208      -275.15413      3057.1166      1282.1052    
      1320   253.08702     -274.83141      2240.7         1282.1609    
      1330   188.4785      -274.34171      1670.8604      1282.6421    
      1340   256.56415     -274.92168      941.943        1283.4428    
      1350   309.90756     -275.38194      506.42499      1284.4446    
      1360   273.45269     -275.10805      402.87623      1285.5736    
      1370   300.22821     -275.34522     -418.8949       1286.7942    
      1380   306.88947     -275.41809     -1541.9753      1287.9632    
      1390   243.42344     -274.91361     -2036.2309      1288.8869    
      1400   310.45088     -275.46606     -2580.7601      1289.4525    
      1410   383.16031     -276.06955     -3036.2546      1289.5535    
      1420   280.76152     -275.25346     -2510.1234      1289.1126    
      1430   234.80492     -274.88894     -1689.8777      1288.2029    
      1440   287.35886     -275.31948     -1128.96        1286.9584    
      1450   248.54346     -275.0006      -260.70592      1285.4896    
      1460   219.9165      -274.75998      733.40975      1283.949     
      1470   259.30349     -275.06663      1747.7492      1282.5172    
      1480   259.2067      -275.0464       3098.7327      1281.3906    
      1490   267.65698     -275.09439      4261.9442      1280.8156    
      1500   353.37759     -275.77076      4405.4227      1281.0041    
      1510   386.23343     -276.02535      3733.7131      1282.0064    
      1520   316.82277     -275.46325      2349.5036      1283.7203    
      1530   254.88433     -274.96316      122.57099      1285.904     
      1540   270.4526      -275.08674     -2384.6179      1288.1627    
      1550   236.94566     -274.80247     -3942.5778      1290.0504    
      1560   209.82035     -274.56421     -4624.9869      1291.2615    
      1570   324.18423     -275.46875     -5059.3033      1291.6374    
      1580   344.60399     -275.60334     -4415.1796      1291.0951    
      1590   209.61373     -274.48282     -2734.9972      1289.7362    
      1600   239.79889     -274.70652     -1292.3475      1287.8358    
      1610   377.72218     -275.78523      243.58533      1285.6608    
      1620   328.9048      -275.34086      2528.3818      1283.5082    
      1630   321.62623     -275.24704      3994.2958      1281.7726    
      1640   370.28331     -275.61206      4413.6606      1280.7293    
      1650   278.7215      -274.84599      4516.1047      1280.4833    
      1660   248.35663     -274.58408      3735.1605      1281.0571    
      1670   325.32416     -275.18961      2296.411       1282.3291    
      1680   275.09271     -274.75551      1044.9716      1284.0668    
      1690   231.44442     -274.37627     -437.19005      1286.0393    
      1700   318.60746     -275.05035     -1874.1682      1287.9801    
      1710   313.68857     -274.96506     -2449.8142      1289.6364    
      1720   316.07191     -274.94423     -3051.7142      1290.8756    
      1730   399.37008     -275.5823      -3860.6876      1291.5705    
      1740   370.25159     -275.31831     -3752.3721      1291.579     
      1750   299.85092     -274.7353      -3105.5827      1290.8989    
      1760   315.29731     -274.85612     -2512.606       1289.6264    
      1770   290.05374     -274.64509     -1224.6785      1287.8779    
      1780   300.70847     -274.72427      273.55184      1285.8772    
      1790   372.41098     -275.30062      1303.2026      1283.8869    
      1800   272.53974     -274.48492      2774.0784      1282.1173    
      1810   227.20996     -274.11058      4082.631       1280.8304    
      1820   364.54202     -275.21798      4523.8553      1280.2626    
      1830   361.31943     -275.18585      4859.6073      1280.5252    
      1840   316.54894     -274.82872      4412.8939      1281.6849    
      1850   399.23576     -275.52127      2409.9903      1283.6642    
      1860   338.90336     -275.06609      295.09947      1286.1385    
      1870   230.89626     -274.21694     -1645.8713      1288.7289    
      1880   340.16293     -275.13656     -4037.4201      1291.0588    
      1890   358.06771     -275.33204     -5404.0522      1292.7013    
      1900   263.98646     -274.62161     -5476.6772      1293.3876    
      1910   294.23932     -274.92504     -5359.5455      1293.0625    
      1920   299.26203     -275.03754     -4592.3558      1291.7414    
      1930   222.95909     -274.4766      -2771.1192      1289.5633    
      1940   306.77433     -275.21316     -880.02769      1286.8392    
      1950   365.57383     -275.76312      1325.3634      1283.9242    
      1960   295.20323     -275.26072      3754.864       1281.2248    
      1970   271.64937     -275.12437      5436.2033      1279.1727    
      1980   286.37885     -275.2954       6264.7101      1278.0819    
      1990   282.56561     -275.31351      6196.3739      1278.1165    
      2000   282.52047     -275.35956      4950.0478      1279.2755    
      2010   257.10293     -275.19165      3053.0895      1281.3591    
      2020   240.78154     -275.08383      979.29102      1284.0436    
      2030   271.12354     -275.34509     -1241.9866      1286.9553    
      2040   259.08311     -275.251       -3112.8232      1289.6947    
      2050   286.01569     -275.46752     -4715.7161      1291.9048    
      2060   321.37697     -275.75261     -5973.791       1293.2746    
      2070   234.42875     -275.04424     -6274.9039      1293.5647    
      2080   200.43712     -274.76503     -5733.2362      1292.6991    
      2090   297.0243      -275.54178     -4457.2433      1290.7645    
      2100   305.31286     -275.5919      -2015.6581      1288.0019    
      2110   269.16306     -275.27834      872.17038      1284.8503    
      2120   333.33912     -275.77626      3039.8867      1281.8217    
      2130   278.65824     -275.30482      4993.3151      1279.3272    
      2140   173.0734      -274.42239      6506.8278      1277.7233    
      2150   268.04512     -275.1689       6508.5353      1277.2715    
      2160   339.86695     -275.71313      5711.6795      1277.9983    
      2170   276.61394     -275.16592      4652.3058      1279.7835    
      2180   272.16252     -275.10452      2707.6403      1282.4365    
      2190   303.447       -275.32661      94.350493      1285.6175    
      2200   262.86602     -274.95955     -2359.6864      1288.8659    
      2210   274.69102     -275.01769     -4607.7762      1291.7227    
      2220   323.99403     -275.3759      -6265.417       1293.7658    
      2230   304.91706     -275.18413     -6826.4408      1294.6804    
      2240   292.91955     -275.06243     -6499.0119      1294.3425    
      2250   315.42558     -275.22855     -5310.0133      1292.8027    
      2260   305.7754      -275.13748     -3195.2002      1290.2801    
      2270   298.82367     -275.07022     -878.60859      1287.154     
      2280   287.38199     -274.96422      1394.8282      1283.8502    
      2290   248.36828     -274.62926      3836.3077      1280.7923    
      2300   259.13188     -274.69461      5861.013       1278.4172    
      2310   308.87022     -275.07439      6972.9544      1277.0883    
      2320   361.78717     -275.48654      7161.4718      1277.0141    
      2330   370.90858     -275.55951      6375.5316      1278.2388    
      2340   292.88296     -274.93676      4527.9153      1280.6319    
      2350   248.23019     -274.58205      1841.4204      1283.8734    
      2360   315.06471     -275.12513     -1143.1544      1287.4879    
      2370   334.39454     -275.27568     -3764.8886      1290.9387    
      2380   307.69851     -275.05292     -5937.2023      1293.7331    
      2390   321.44404     -275.16354     -7519.037       1295.4547    
      2400   296.5927      -274.96758     -7943.4829      1295.8031    
      2410   221.36534     -274.36426     -6971.4043      1294.6912    
      2420   239.96387     -274.52065     -5029.7519      1292.2873    
      2430   324.08495     -275.2007      -2322.659       1288.9514    
      2440   355.09896     -275.44238      945.94488      1285.1875    
      2450   350.7262      -275.39889      4060.7643      1281.5893    
      2460   316.82355     -275.11908      6428.8566      1278.7185    
      2470   335.20758     -275.27165      7418.9852      1276.9942    
      2480   342.24463     -275.34529      7339.4749      1276.6036    
      2490   256.46992     -274.67047      6624.4354      1277.5463    
      2500   254.66111     -274.67622      4622.0747      1279.6892    
      2510   292.45286     -274.99965      1976.9027      1282.6904    
      2520   237.08924     -274.55519     -200.01803      1286.0948    
      2530   292.43033     -275.00181     -2699.536       1289.4883    
      2540   394.6351      -275.82624     -5272.6292      1292.4092    
      2550   286.11884     -274.94504     -6390.9695      1294.3986    
      2560   231.73029     -274.50609     -6622.6079      1295.2233    
      2570   360.79495     -275.56386     -6566.0662      1294.8187    
      2580   340.24036     -275.41522     -5188.6502      1293.2125    
      2590   278.63793     -274.93836     -3036.7464      1290.6513    
      2600   377.22813     -275.77363     -1265.2414      1287.5155    
      2610   319.26536     -275.3516       915.74704      1284.1523    
      2620   153.38683     -274.03329      3356.5129      1280.9607    
      2630   217.55091     -274.57267      4964.2025      1278.3638    
      2640   300.31844     -275.272        6502.7996      1276.6688    
      2650   250.95686     -274.89928      7815.3905      1276.1547    
      2660   319.51829     -275.4951       7288.8195      1277.0353    
      2670   367.6584      -275.94841      5489.2264      1279.2369    
      2680   262.57471     -275.15948      3317.0435      1282.4615    
      2690   277.67354     -275.33522     -14.407825      1286.306     
      2700   350.18822     -275.98493     -3731.6897      1290.1751    
      2710   255.42078     -275.2694      -6229.1146      1293.4047    
      2720   191.18195     -274.7779      -7886.6687      1295.5076    
      2730   249.50545     -275.28146     -8766.8856      1296.1582    
      2740   244.46788     -275.27312     -7977.3133      1295.1997    
      2750   215.10562     -275.06104     -5966.2139      1292.7693    
      2760   259.83273     -275.4445      -3397.609       1289.2335    
      2770   262.34974     -275.47168      87.5411        1285.0841    
      2780   259.35011     -275.43933      3748.3777      1280.955     
      2790   287.46238     -275.64868      6684.6146      1277.5011    
      2800   295.95786     -275.69496      8712.526       1275.251     
      2810   307.17441     -275.76914      9228.3183      1274.5597    
      2820   305.45111     -275.74744      7947.0451      1275.5177    
      2830   222.82007     -275.07155      5720.1431      1277.9183    
      2840   186.23318     -274.76511      2735.3415      1281.3707    
      2850   238.86778     -275.16382     -759.27644      1285.3427    
      2860   253.10957     -275.22303     -3619.5718      1289.2158    
      2870   260.02337     -275.20935     -5539.2795      1292.4607    
      2880   290.45023     -275.3761      -6881.716       1294.7028    
      2890   275.09192     -275.17047     -7294.6197      1295.6876    
      2900   280.39954     -275.14426     -6715.3836      1295.3307    
      2910   358.28388     -275.70971     -5560.2728      1293.7298    
      2920   374.62041     -275.78236     -3769.122       1291.1047    
      2930   291.79469     -275.07114     -1313.5351      1287.7941    
      2940   262.9379      -274.80833      1113.8142      1284.2425    
      2950   281.70589     -274.92873      3343.3498      1280.8949    
      2960   238.84171     -274.54481      5585.3061      1278.1622    
      2970   223.64462     -274.38787      7291.5546      1276.4402    
      2980   337.57172     -275.27895      7640.526       1276.022     
      2990   344.73966     -275.30601      7199.8839      1276.9874    
      3000   275.63652     -274.73033      5829.9933      1279.2621    
      3010   338.04356     -275.22903      3073.0926      1282.599     
      3020   399.7169      -275.72089     -67.625514      1286.5226    
      3030   310.39404     -274.9908      -2786.82        1290.4739    
      3040   290.00845     -274.82049     -5629.7902      1293.9331    
      3050   334.79264     -275.1803      -8023.8311      1296.37      
      3060   272.21859     -274.6722      -8849.8463      1297.3445    
      3070   259.96735     -274.57884     -8466.1811      1296.6845    
      3080   335.66197     -275.20605     -7204.1302      1294.4535    
      3090   295.75082     -274.89645     -4474.4367      1290.9047    
      3100   209.07653     -274.1968      -569.95115      1286.5494    
      3110   302.31797     -274.94466      3309.0473      1282.0929    
      3120   364.87553     -275.42878      6951.2892      1278.2472    
      3130   350.63562     -275.2957       9377.879       1275.6553    
      3140   394.90041     -275.66041      9681.157       1274.7356    
      3150   377.6985      -275.55483      8527.4318      1275.5559    
      3160   257.54527     -274.62358      6307.3409      1277.921     
      3170   211.71261     -274.28382      3011.4141      1281.437     
      3180   269.57527     -274.77524     -414.14377      1285.5281    
      3190   288.45025     -274.93915     -3116.4706      1289.5842    
      3200   295.37933     -275.00077     -5471.2434      1293.0932    
      3210   322.6029      -275.22955     -7314.6401      1295.6108    
      3220   324.7068      -275.26483     -8170.7711      1296.7897    
      3230   292.35988     -275.03168     -7962.7934      1296.4624    
      3240   293.92817     -275.08342     -6777.5912      1294.6627    
      3250   308.99911     -275.25316     -4406.6401      1291.62      
      3260   295.77085     -275.19465     -1154.0391      1287.7781    
      3270   279.88263     -275.10972      2118.0528      1283.7303    
      3280   296.27174     -275.28443      4743.1424      1280.0688    
      3290   328.20992     -275.59706      6502.6595      1277.2662    
      3300   273.71689     -275.216        7602.6187      1275.6414    
      3310   205.0064      -274.70886      7764.7945      1275.3854    
      3320   220.84819     -274.88385      6734.4448      1276.5241    
      3330   258.22961     -275.23566      4975.9183      1278.8862    
      3340   266.00484     -275.34297      2923.8828      1282.1703    
      3350   315.70095     -275.78771      180.63264      1286.003     
      3360   349.42879     -276.10621     -3117.4337      1289.8865    
      3370   269.66934     -275.49664     -5960.2464      1293.2249    
      3380   207.16987     -275.01172     -7883.2555      1295.4847    
      3390   221.73273     -275.14749     -8689.3162      1296.2976    
      3400   245.90525     -275.36266     -8098.2767      1295.5101    
      3410   239.62378     -275.32799     -6091.1631      1293.234     
      3420   265.39395     -275.54755     -3369.2943      1289.8373    
      3430   279.24432     -275.65899     -325.14181      1285.8272    
      3440   250.40148     -275.41055      2831.2807      1281.7674    
      3450   245.88397     -275.34813      5603.1499      1278.2274    
      3460   260.93967     -275.43435      7581.058       1275.7009    
      3470   251.4538      -275.31538      8537.7228      1274.5377    
      3480   241.40701     -275.19076      8384.2636      1274.9082    
      3490   285.31109     -275.49661      7095.3108      1276.789     
      3500   309.12962     -275.6213       4778.6019      1279.9604    
      3510   292.9103      -275.41194      1504.6909      1284.0139    
      3520   291.84771     -275.31774     -2137.0471      1288.3665    
      3530   281.69681     -275.14289     -5213.3159      1292.3609    
      3540   235.20078     -274.67993     -7333.4918      1295.4223    
      3550   236.85404     -274.62376     -8561.118       1297.1403    
      3560   327.582       -275.29454     -8801.931       1297.2758    
      3570   344.25613     -275.37621     -7551.5063      1295.7906    
      3580   296.74364     -274.96246     -5127.2195      1292.9166    
      3590   294.51934     -274.92738     -2217.2064      1289.1022    
      3600   329.1699      -275.1904       808.75852      1284.8875    
      3610   286.45614     -274.82092      4110.0483      1280.8381    
      3620   284.58814     -274.78188      6911.8285      1277.5414    
      3630   351.44864     -275.3036       8518.6803      1275.4895    
      3640   339.67219     -275.199        9073.3729      1274.9726    
      3650   267.78476     -274.61915      8462.9912      1276.0904    
      3660   321.84378     -275.06994      6080.5332      1278.7281    
      3670   367.76456     -275.45653      2782.7817      1282.4809    
      3680   269.18104     -274.66551     -413.81039      1286.774     
      3690   256.77652     -274.56433     -3834.7989      1291.0134    
      3700   310.90422     -274.99417     -6927.2385      1294.5682    
      3710   280.29638     -274.73333     -8472.653       1296.8724    
      3720   284.37095     -274.75984     -8586.7928      1297.6218    
      3730   389.09143     -275.61478     -7861.6241      1296.7782    
      3740   377.9621      -275.54637     -6018.9902      1294.4864    
      3750   278.0023      -274.76361     -3416.8384      1291.0913    
      3760   298.47105     -274.9557      -815.9329       1287.0691    
      3770   314.15042     -275.10418      2196.4518      1282.9153    
      3780   260.58582     -274.68073      5272.0219      1279.1771    
      3790   275.06022     -274.80407      7446.2657      1276.3941    
      3800   320.48911     -275.18424      8587.0624      1274.9527    
      3810   280.2268      -274.87554      8916.0569      1275.0619    
      3820   286.85098     -274.95484      7598.7564      1276.7688    
      3830   336.45779     -275.39026      4891.601       1279.8492    
      3840   308.72036     -275.19785      1754.5974      1283.8395    
      3850   285.78678     -275.03739     -1698.0509      1288.1726    
      3860   301.92031     -275.18763     -4836.465       1292.2216    
      3870   296.16647     -275.15811     -6946.1373      1295.4089    
      3880   301.22029     -275.22064     -8350.9861      1297.3224    
      3890   327.41328     -275.46844     -9037.9232      1297.6892    
      3900   292.02771     -275.22943     -8373.0849      1296.3884    
      3910   234.51135     -274.81002     -6478.1816      1293.5448    
      3920   214.85966     -274.68799     -3544.8832      1289.5174    
      3930   225.66477     -274.79678      361.63956      1284.8611    
      3940   277.80896     -275.22454      4425.7323      1280.2881    
      3950   342.9786      -275.75165      7751.4296      1276.5255    
      3960   328.99922     -275.6431       10061.245      1274.1667    
      3970   311.05033     -275.51732      10507.265      1273.6073    
      3980   323.46927     -275.65781      8680.2702      1274.9188    
      3990   250.09605     -275.10577      5857.0293      1277.8014    
      4000   210.99443     -274.8203       2605.3815      1281.7619    
      4010   259.39697     -275.23331     -966.0105       1286.2165    
      4020   258.93488     -275.23642     -4132.7963      1290.5233    
      4030   209.35044     -274.82675     -6523.477       1294.0964    
      4040   285.00037     -275.43033     -8475.1235      1296.4711    
      4050   324.70348     -275.74241     -9157.875       1297.288     
      4060   247.15504     -275.10883     -8177.4749      1296.4215    
      4070   255.53265     -275.17666     -6347.625       1294.0414    
      4080   312.27121     -275.62798     -3688.2564      1290.4984    
      4090   270.82159     -275.26752      10.542156      1286.302     
      4100   275.04372     -275.26609      3501.3952      1282.1192    
      4110   372.29312     -276.00273      5793.8233      1278.572     
      4120   304.69043     -275.39566      7426.1602      1276.0835    
      4130   179.70229     -274.33866      8098.3577      1274.936     
      4140   228.3563      -274.69659      7384.7133      1275.237     
      4150   270.7535      -274.98071      6311.7807      1276.8783    
      4160   234.60507     -274.62296      5035.08        1279.676     
      4170   321.18292     -275.2567       2593.1976      1283.3893    
      4180   416.81555     -275.93754     -539.03638      1287.5891    
      4190   354.7156      -275.3514      -3366.4747      1291.7196    
      4200   323.03039     -275.03827     -6228.2167      1295.2433    
      4210   358.5575      -275.28182     -8743.9913      1297.6221    
      4220   294.13949     -274.72876     -9681.6269      1298.3963    
      4230   231.07399     -274.20357     -8966.5867      1297.3845    
      4240   288.85974     -274.66526     -7037.1704      1294.7152    
      4250   305.11672     -274.78236     -3733.0253      1290.7657    
      4260   286.93605     -274.61312      125.71612      1286.1487    
      4270   346.58991     -275.06768      3603.8458      1281.5673    
      4280   373.58744     -275.25375      6871.8382      1277.662     
      4290   305.81984     -274.67943      9478.5939      1275.0125    
      4300   312.86167     -274.72692      10306.612      1274.0607    
      4310   358.72713     -275.10466      9660.0804      1274.9584    
      4320   368.05103     -275.20384      7680.2684      1277.5973    
      4330   364.15628     -275.20944      4116.0437      1281.6254    
      4340   346.96861     -275.11071     -111.61277      1286.4199    
      4350   275.24876     -274.55775     -4004.7897      1291.2249    
      4360   253.39207     -274.39423     -7589.9714      1295.3094    
      4370   264.99829     -274.4981      -9924.3399      1298.0076    
      4380   258.99926     -274.46191     -10172.444      1298.8842    
      4390   312.75654     -274.92147     -8889.0839      1297.8784    
      4400   363.24576     -275.36801     -6526.7773      1295.2296    
      4410   349.61837     -275.30339     -3236.287       1291.3915    
      4420   367.85788     -275.50425      84.93909       1286.9723    
      4430   366.74031     -275.55875      3148.0938      1282.5874    
      4440   275.48713     -274.87498      5978.5466      1278.7991    
      4450   252.15496     -274.72846      7563.6823      1276.0959    
      4460   277.42103     -274.98159      8024.5916      1274.7568    
      4470   211.52696     -274.48778      8326.5017      1274.8774    
      4480   258.32651     -274.90509      7353.8466      1276.491     
      4490   376.17833     -275.9132       4878.2736      1279.4243    
      4500   296.36022     -275.31705      2177.3496      1283.2608    
      4510   220.29711     -274.72965     -980.56307      1287.5058    
      4520   299.31918     -275.38942     -4542.5805      1291.5772    
      4530   312.99613     -275.51374     -7047.1313      1294.8351    
      4540   254.36975     -275.04698     -8188.3689      1296.8083    
      4550   311.87356     -275.52845     -8715.6017      1297.261     
      4560   341.68604     -275.79671     -8071.5472      1296.1047    
      4570   247.87902     -275.06264     -5949.6288      1293.4726    
      4580   225.70636     -274.9016      -3348.1375      1289.7522    
      4590   255.29003     -275.14775     -395.02595      1285.4359    
      4600   231.14105     -274.94037      2938.719       1281.0758    
      4610   233.60571     -274.93617      6147.4701      1277.2724    
      4620   293.45722     -275.38989      8783.6653      1274.5943    
      4630   317.92213     -275.55873      10291.869      1273.5007    
      4640   319.8837      -275.56105      9903.9681      1274.2452    
      4650   331.05747     -275.65406      7655.6344      1276.761     
      4660   312.75436     -275.51438      4172.4646      1280.6605    
      4670   239.45586     -274.92032      132.76038      1285.3301    
      4680   213.78336     -274.69803     -3849.3959      1290.0401    
      4690   246.77767     -274.93764     -6966.8382      1294.0629    
      4700   301.11282     -275.34499     -8852.4021      1296.8133    
      4710   297.74553     -275.29003     -9280.4496      1297.9343    
      4720   296.73105     -275.26823     -8618.7841      1297.3359    
      4730   288.10027     -275.19343     -7002.9904      1295.146     
      4740   261.04066     -274.97098     -4512.7125      1291.6766    
      4750   262.01018     -274.96959     -1370.8446      1287.4009    
      4760   317.33642     -275.3978       2110.5756      1282.9039    
      4770   319.96523     -275.3882       5716.347       1278.8243    
      4780   286.62855     -275.08683      8521.0395      1275.7977    
      4790   332.28584     -275.43538      9484.7726      1274.3018    
      4800   307.43931     -275.22193      9113.6218      1274.5116    
      4810   242.75954     -274.695        7528.5588      1276.3586    
      4820   267.95678     -274.89817      4685.2844      1279.558     
      4830   300.19576     -275.14681      1328.383       1283.6128    
      4840   260.73258     -274.8014      -1765.3353      1287.927     
      4850   281.72343     -274.93889     -4535.5312      1291.9284    
      4860   354.05095     -275.48358     -6686.795       1295.1031    
      4870   361.5948      -275.50652     -8032.9368      1297.0468    
      4880   304.23481     -275.01918     -8579.9001      1297.5023    
      4890   261.16501     -274.66014     -8031.7075      1296.3729    
      4900   287.35758     -274.86675     -6216.459       1293.7718    
      4910   310.47616     -275.04219     -3217.49        1290.0506    
      4920   296.95279     -274.91119      424.12552      1285.7707    
      4930   322.94212     -275.09219      3786.7165      1281.5945    
      4940   353.70248     -275.30674      6437.9084      1278.128     
      4950   296.66689     -274.81287      8364.6497      1275.8447    
      4960   279.55589     -274.65303      8931.7124      1275.0704    
      4970   323.16373     -274.99158      7951.982       1275.8962    
      4980   302.9121      -274.81365      6092.2162      1278.1562    
      4990   298.87393     -274.76853      3594.4991      1281.5201    
      5000   339.03323     -275.07463      701.0495       1285.542     
      5010   346.97925     -275.11099     -2285.0371      1289.6986    
      5020   328.92903     -274.9341      -5111.8957      1293.4407    
      5030   351.81174     -275.09223     -7496.167       1296.2401    
      5040   339.88645     -274.97588     -8728.3356      1297.6583    
      5050   289.90503     -274.56359     -8574.3916      1297.4659    
      5060   274.4387      -274.43897     -7224.3466      1295.694     
      5070   311.35949     -274.73887     -4953.5955      1292.6029    
      5080   344.15825     -274.99948     -1950.5862      1288.6279    
      5090   331.97652     -274.88972      1591.7764      1284.3345    
      5100   329.19274     -274.85327      4919.6782      1280.3647    
      5110   347.10504     -274.98737      7231.6968      1277.3066    
      5120   320.27113     -274.76796      8529.2771      1275.5686    
      5130   288.69002     -274.52017      8885.8589      1275.375     
      5140   360.29183     -275.12519      7744.3943      1276.7728    
      5150   366.19896     -275.21433      5555.4402      1279.5645    
      5160   288.82518     -274.63065      2756.432       1283.3647    
      5170   342.65677     -275.11267     -962.05329      1287.6574    
      5180   357.62426     -275.28669     -4518.3054      1291.7776    
      5190   248.88116     -274.4467      -6933.1755      1295.0781    
      5200   254.67098     -274.52663     -8636.0894      1297.092     
      5210   324.60029     -275.14262     -9289.9836      1297.5036    
      5220   252.19426     -274.60746     -7948.4895      1296.2145    
      5230   267.70956     -274.77906     -5557.2603      1293.4707    
      5240   409.87679     -275.9945      -2752.525       1289.7238    
      5250   352.25237     -275.59718      919.2742       1285.5204    
      5260   266.1755      -274.94852      4072.0731      1281.5169    
      5270   316.56824     -275.40276      5857.7567      1278.2693    
      5280   277.98108     -275.13517      7338.9094      1276.1107    
      5290   190.41779     -274.45113      8298.126       1275.2925    
      5300   282.23911     -275.22532      7441.915       1275.953     
      5310   313.26543     -275.51076      5747.5426      1277.9525    
      5320   248.04503     -275.00882      3685.3881      1280.9915    
      5330   270.77968     -275.21261      826.18402      1284.6872    
      5340   296.18489     -275.42809     -2131.9184      1288.5295    
      5350   263.36738     -275.16041     -4645.4791      1291.981     
      5360   286.12513     -275.33999     -6806.6394      1294.5676    
      5370   298.58806     -275.43595     -7798.6451      1295.8998    
      5380   296.08266     -275.41602     -7484.5101      1295.7967    
      5390   305.80244     -275.50163     -6459.176       1294.3148    
      5400   288.34952     -275.36908     -4716.2881      1291.6593    
      5410   247.58359     -275.04246     -2209.6259      1288.1703    
      5420   239.56748     -274.97136      496.6128       1284.3118    
      5430   217.76672     -274.77261      3417.6186      1280.5868    
      5440   218.36506     -274.74196      6315.8024      1277.5212    
      5450   311.14855     -275.44417      8128.5302      1275.6121    
      5460   351.65114     -275.70915      8783.8987      1275.1745    
      5470   329.19447     -275.47386      8393.2844      1276.3189    
      5480   346.15034     -275.5706       6338.0189      1278.9587    
      5490   321.23059     -275.32814      2855.1841      1282.7253    
      5500   251.33541     -274.71923     -956.59064      1287.0024    
      5510   249.86142     -274.65721     -4364.4284      1291.099     
      5520   306.69809     -275.05021     -7008.5408      1294.3852    
      5530   306.26504     -274.96862     -8336.6718      1296.3764    
      5540   272.67651     -274.62961     -8364.9933      1296.8257    
      5550   295.26027     -274.75588     -7445.5442      1295.7298    
      5560   325.01987     -274.93974     -5343.7377      1293.2814    
      5570   316.63283     -274.81728     -2297.3847      1289.8869    
      5580   337.16944     -274.93418      744.12393      1286.109     
      5590   388.96952     -275.30826      3440.4561      1282.5079    
      5600   363.04878     -275.06431      5924.4362      1279.5768    
      5610   338.99057     -274.85273      7410.1786      1277.7423    
      5620   394.59475     -275.30742      7318.9034      1277.2479    
      5630   313.68896     -274.66789      6447.7469      1278.0802    
      5640   207.61181     -273.82028      4639.1433      1280.0685    
      5650   290.28148     -274.49995      1772.9735      1282.8748    
      5660   331.13233     -274.8317      -533.7904       1286.0039    
      5670   259.52754     -274.24488     -1952.5469      1289.0375    
      5680   376.35427     -275.19064     -3745.4295      1291.6887    
      5690   463.12712     -275.90749     -5158.2065      1293.6409    
      5700   317.59805     -274.75533     -5350.058       1294.6502    
      5710   297.52685     -274.62192     -5506.0238      1294.6615    
      5720   386.07827     -275.3827      -5439.0164      1293.6578    
      5730   312.96979     -274.83758     -4245.631       1291.6813    
      5740   260.07245     -274.44516     -2545.9173      1288.954     
      5750   334.20032     -275.08329     -547.09201      1285.7969    
      5760   281.99541     -274.68844      2340.6009      1282.5976    
      5770   236.67892     -274.33373      4896.58        1279.8614    
      5780   321.9975      -275.03887      6270.7547      1278.0298    
      5790   327.04992     -275.0966       7076.7413      1277.352     
      5800   317.48279     -275.04327      6904.7968      1277.953     
      5810   359.6347      -275.42222      5390.2004      1279.7855    
      5820   333.36363     -275.25258      3210.0108      1282.5819    
      5830   322.18751     -275.205        417.98444      1285.9412    
      5840   333.92206     -275.34298     -2601.6836      1289.3552    
      5850   274.28464     -274.89394     -4901.0335      1292.2819    
      5860   245.37998     -274.68285     -6531.2835      1294.2925    
      5870   277.57541     -274.96765     -7567.1429      1295.0843    
      5880   243.30745     -274.71073     -7196.725       1294.4894    
      5890   260.02292     -274.86526     -5564.4045      1292.5898    
      5900   342.27815     -275.5526      -3187.6523      1289.6992    
      5910   309.32333     -275.30138     -75.95537       1286.2769    
      5920   277.81351     -275.05473      2946.7817      1282.8899    
      5930   335.60845     -275.53204      5055.0574      1280.0743    
      5940   320.013       -275.41694      6449.8575      1278.2076    
      5950   286.33487     -275.15948      6904.6344      1277.5229    
      5960   308.39156     -275.36189      5948.7997      1278.0781    
      5970   253.98397     -274.94316      4282.2584      1279.701     
      5980   212.61337     -274.62119      2358.1425      1282.0879    
      5990   278.91137     -275.16605      263.44465      1284.8846    
      6000   292.3408      -275.27178     -1602.3153      1287.7138    
      6010   268.5549      -275.06958     -3260.6716      1290.2311    
      6020   300.712       -275.31814     -4728.4276      1292.13      
      6030   319.53148     -275.45592     -5542.9256      1293.1506    
      6040   301.30675     -275.2955      -5505.7057      1293.1525    
      6050   277.05481     -275.08733     -4707.6923      1292.1525    
      6060   301.38739     -275.27016     -3480.8383      1290.3063    
      6070   326.90797     -275.4535      -1728.9983      1287.8566    
      6080   278.15009     -275.02547      540.85519      1285.1373    
      6090   234.51432     -274.63198      2666.1572      1282.557     
      6100   296.01971     -275.07721      4102.1991      1280.4904    
      6110   323.20476     -275.21949      5083.0249      1279.1945    
      6120   252.0954      -274.56641      5646.306       1278.8369    
      6130   316.82016     -275.02058      5113.7332      1279.4935    
      6140   366.90836     -275.33791      4132.4971      1281.0711    
      6150   301.96596     -274.73538      2865.3676      1283.388     
      6160   351.16588     -275.07451      523.93586      1286.1932    
      6170   407.37637     -275.46699     -2078.7535      1289.0693    
      6180   289.288       -274.46012     -3839.604       1291.5555    
      6190   267.8513      -274.25406     -5282.5044      1293.3155    
      6200   361.2731      -274.97961     -6285.2902      1294.0879    
      6210   317.74803     -274.59792     -5910.4458      1293.7152    
      6220   308.55329     -274.50828     -4617.3257      1292.2723    
      6230   382.65179     -275.09996     -2705.9097      1290.0112    
      6240   341.73086     -274.7631      -288.51717      1287.2999    
      6250   299.99092     -274.42393      1822.9334      1284.5761    
      6260   346.18491     -274.80184      3436.5892      1282.222     
      6270   344.33327     -274.79443      4816.8362      1280.5307    
      6280   355.62225     -274.90566      5384.7313      1279.73      
      6290   362.08367     -274.99367      5173.5051      1279.9115    
      6300   325.65118     -274.74435      4314.2466      1281.027     
      6310   320.79304     -274.75671      2738.2473      1282.9095    
      6320   330.79825     -274.89554      826.34486      1285.2718    
      6330   297.08379     -274.67704     -937.28186      1287.7696    
      6340   321.61194     -274.92992     -2900.0248      1290.0694    
      6350   327.62636     -275.03895     -4520.402       1291.8202    
      6360   267.42643     -274.60227     -5231.7054      1292.736     
      6370   323.0989      -275.10649     -5315.8323      1292.6866    
      6380   356.42778     -275.44421     -4461.2895      1291.6756    
      6390   254.45299     -274.67238     -2769.199       1289.8758    
      6400   283.77344     -274.95279     -1234.4632      1287.5929    
      6410   343.82524     -275.48528      576.08339      1285.1269    
      6420   272.29011     -274.93958      2740.5615      1282.8154    
      6430   283.72887     -275.0565       4023.5686      1281.027     
      6440   365.72906     -275.75285      4399.691       1279.9851    
      6450   278.232       -275.07244      4716.2799      1279.763     
      6460   239.23194     -274.77644      4204.7149      1280.391     
      6470   290.18146     -275.20808      2996.7793      1281.769     
      6480   253.20019     -274.91723      1713.3656      1283.6824    
      6490   271.94026     -275.07282     -103.22853      1285.8829    
      6500   330.25105     -275.54543     -2014.4041      1288.0436    
      6510   285.23178     -275.17646     -3214.0413      1289.8277    
      6520   269.8578      -275.04791     -4021.2589      1291.0099    
      6530   316.0426      -275.41983     -4404.942       1291.4466    
      6540   277.78137     -275.10517     -3851.2427      1291.0865    
      6550   292.64109     -275.22374     -3075.774       1290.0284    
      6560   325.24354     -275.48642     -1994.3844      1288.4285    
      6570   259.91148     -274.95129     -360.44549      1286.5006    
      6580   274.69783     -275.06448      832.05904      1284.5312    
      6590   321.32379     -275.4322       1754.6753      1282.7417    
      6600   226.18528     -274.64389      3238.4333      1281.3135    
      6610   241.75767     -274.75415      4136.1679      1280.4877    
      6620   346.33186     -275.57888      4150.155       1280.4138    
      6630   276.59363     -274.98534      4084.3008      1281.1016    
      6640   273.41905     -274.93957      3146.1831      1282.5161    
      6650   413.68104     -276.05378      1176.1813      1284.4761    
      6660   333.95038     -275.38437     -354.2509       1286.6464    
      6670   229.29144     -274.52119     -1843.519       1288.7354    
      6680   312.91789     -275.18492     -3731.4055      1290.4584    
      6690   286.63764     -274.9472      -4598.2381      1291.4965    
      6700   221.59359     -274.39649     -4465.4666      1291.6948    
      6710   330.19868     -275.25153     -4240.3973      1291.0694    
      6720   338.42485     -275.27737     -3143.605       1289.6906    
      6730   254.09044     -274.55544     -1312.7652      1287.7701    
      6740   314.14848     -275.00134      347.01257      1285.6361    
      6750   359.30293     -275.30327      2189.377       1283.6042    
      6760   303.76256     -274.78328      4032.3506      1282.0075    
      6770   361.7019      -275.18366      4635.3322      1281.151     
      6780   388.83304     -275.31874      4359.8703      1281.1417    
      6790   328.2759      -274.75122      3585.9001      1281.9258    
      6800   316.53128     -274.5878       2190.07        1283.3507    
      6810   319.64739     -274.53843      555.40267      1285.1629    
      6820   309.78808     -274.37813     -942.36186      1287.0663    
      6830   297.25322     -274.19464     -2073.7888      1288.7883    
      6840   305.22072     -274.17683     -2728.8539      1290.1232    
      6850   380.67418     -274.70297     -2908.357       1290.9536    
      6860   439.56919     -275.09796     -2756.4788      1291.2503    
      6870   405.31248     -274.76728     -2447.6829      1291.0456    
      6880   419.33808     -274.86184     -2226.2027      1290.397     
      6890   431.43952     -274.96942     -1619.4561      1289.3601    
      6900   311.62806     -274.02046     -538.87699      1288.0546    
      6910   309.4253      -274.02642      56.873425      1286.6632    
      6920   383.74263     -274.66195      664.70161      1285.3058    
      6930   325.63749     -274.22647      1756.0896      1284.1027    
      6940   309.45051     -274.12843      2424.7623      1283.2335    
      6950   371.54621     -274.67274      2735.8546      1282.8172    
      6960   348.28688     -274.53056      3098.402       1282.9136    
      6970   349.47264     -274.58833      2836.1188      1283.5708    
      6980   407.37372     -275.11938      2018.6317      1284.7375    
      6990   381.54125     -274.97935      1049.0207      1286.2689    
      7000   371.02211     -274.96333     -531.31813      1287.975     
      7010   364.13325     -274.97626     -2182.923       1289.573     
      7020   307.21829     -274.56987     -3345.4096      1290.7689    
      7030   327.90619     -274.78466     -4420.0928      1291.3407    
      7040   326.21655     -274.81851     -4609.2358      1291.1095    
      7050   220.93186     -273.99523     -3362.6931      1290.0599    
      7060   263.55579     -274.36092     -1998.6505      1288.407     
      7070   376.05475     -275.29577     -439.99027      1286.4133    
      7080   321.61632     -274.87559      2003.172       1284.386     
      7090   341.20172     -275.05782      3651.6454      1282.7414    
      7100   435.96039     -275.87064      3974.0155      1281.7661    
      7110   328.42065     -275.05511      4139.1522      1281.5331    
      7120   269.68866     -274.62457      3466.822       1282.0494    
      7130   346.66578     -275.30237      1848.3511      1283.182     
      7140   270.28006     -274.73092      691.11473      1284.6578    
      7150   228.81196     -274.42467     -486.52795      1286.252     
      7160   321.5079      -275.20736     -1947.6755      1287.7418    
      7170   283.12762     -274.9239      -2562.9635      1288.8808    
      7180   230.05128     -274.50995     -2720.9689      1289.5502    
      7190   360.30326     -275.58863     -3129.3892      1289.7101    
      7200   361.19714     -275.62723     -2611.5508      1289.314     
      7210   247.62724     -274.733       -1458.822       1288.4581    
      7220   311.30017     -275.27659     -791.27542      1287.3379    
      7230   359.80027     -275.70475      86.123592      1286.0938    
      7240   276.36827     -275.06043      1178.9858      1284.8897    
      7250   280.81255     -275.12574      1372.2088      1283.9033    
      7260   291.73639     -275.24394      1317.1216      1283.1792    
      7270   226.51527     -274.73497      1658.3241      1282.7154    
      7280   231.88949     -274.79123      1800.7425      1282.5588    
      7290   265.23561     -275.06838      1907.1901      1282.7365    
      7300   278.82997     -275.17927      2051.7882      1283.2674    
      7310   329.60478     -275.59177      1693.5517      1284.166     
      7320   331.78207     -275.61171      903.90994      1285.3676    
      7330   309.19751     -275.43437     -339.91832      1286.7252    
      7340   311.88882     -275.4653      -1836.8755      1288.0114    
      7350   267.20023     -275.11007     -2803.0134      1288.9644    
      7360   246.82295     -274.94887     -3205.436       1289.407     
      7370   274.00314     -275.17055     -3208.7613      1289.2649    
      7380   245.78144     -274.9359      -2498.5586      1288.5488    
      7390   237.38624     -274.85556     -1311.1126      1287.3919    
      7400   313.25864     -275.4485      -318.36616      1286.0049    
      7410   321.90958     -275.48254      748.33928      1284.5798    
      7420   272.20666     -275.04073      1877.6412      1283.3119    
      7430   290.62408     -275.1478       2704.4798      1282.3986    
      7440   313.64298     -275.27903      3217.0195      1281.9876    
      7450   300.1891      -275.10761      3305.4712      1282.1666    
      7460   319.18969     -275.19663      2726.7317      1282.9431    
      7470   339.5915      -275.28923      1600.798       1284.2106    
      7480   311.22061     -274.98734      156.07731      1285.7649    
      7490   287.5666      -274.72996     -1418.9574      1287.3414    
      7500   275.7721      -274.57019     -2541.9931      1288.6595    
      7510   280.89075     -274.5476      -2978.3526      1289.5163    
      7520   309.83948     -274.71721     -2855.8651      1289.8313    
      7530   351.9811      -274.99442     -2296.1796      1289.6294    
      7540   365.6435      -275.04967     -1539.0167      1289.0153    
      7550   372.79785     -275.06913     -923.53445      1288.1263    
      7560   350.60879     -274.86618     -288.00445      1287.0824    
      7570   356.56338     -274.9055       218.08791      1285.9979    
      7580   340.5074      -274.77572      797.42909      1284.97      
      7590   282.81146     -274.31144      1564.7875      1284.1058    
      7600   283.81368     -274.32275      2180.0125      1283.5376    
      7610   358.56257     -274.93499      2352.7222      1283.3708    
      7620   368.155       -275.0269       2246.3491      1283.6383    
      7630   328.65223     -274.7288       1834.3901      1284.3183    
      7640   353.33688     -274.96008      758.92514      1285.3257    
      7650   337.51483     -274.86983     -344.11433      1286.4735    
      7660   273.04041     -274.3802      -1058.8529      1287.5648    
      7670   303.97608     -274.6622      -1680.2166      1288.4613    
      7680   361.65484     -275.16827     -2097.892       1289.0519    
      7690   347.91323     -275.10353     -2120.0209      1289.2651    
      7700   330.45026     -275.01225     -2000.6707      1289.0945    
      7710   350.97255     -275.23656     -1950.5839      1288.5602    
      7720   294.15237     -274.83182     -1428.2544      1287.6844    
      7730   248.07266     -274.49757     -605.14526      1286.5621    
      7740   305.05886     -274.99534      171.17524      1285.3394    
      7750   309.23241     -275.06209      1245.2459      1284.1674    
      7760   270.79186     -274.77438      2308.2571      1283.2373    
      7770   318.92162     -275.18683      2728.8788      1282.7299    
      7780   370.49047     -275.63297      2618.9334      1282.7228    
      7790   317.11554     -275.23128      2195.5447      1283.1974    
      7800   249.0029      -274.70087      1249.2372      1284.0686    
      7810   283.10016     -274.99395      105.43018      1285.1662    
      7820   284.06063     -275.01176     -536.49772      1286.2927    
      7830   272.19008     -274.92007     -951.34885      1287.3249    
      7840   331.29426     -275.40395     -1602.4391      1288.1782    
      7850   361.6214      -275.65886     -2229.6924      1288.7385    
      7860   294.09195     -275.12333     -2396.044       1288.8992    
      7870   252.75159     -274.79791     -2376.1651      1288.6249    
      7880   251.5649      -274.79285     -2105.1915      1287.9221    
      7890   255.06968     -274.81921     -1267.5151      1286.8491    
      7900   280.53675     -275.01787      11.10296       1285.561     
      7910   331.33744     -275.41894      1322.4092      1284.2881    
      7920   345.38543     -275.52407      2384.8551      1283.2673    
      7930   316.07651     -275.28366      2909.261       1282.6871    
      7940   305.73362     -275.20236      2662.6687      1282.6355    
      7950   293.71752     -275.10871      2062.6667      1283.0722    
      7960   266.15919     -274.88703      1291.4621      1283.888     
      7970   259.01734     -274.82668      383.24885      1284.9405    
      7980   288.20187     -275.05631     -456.30021      1286.0658    
      7990   297.4635      -275.11972     -1067.0775      1287.1129    
      8000   307.16603     -275.18577     -1700.5856      1287.9646    
      8010   317.64385     -275.25878     -2168.2379      1288.5079    
      8020   297.126       -275.08181     -2232.761       1288.6614    
      8030   254.10338     -274.72132     -1987.7128      1288.4127    
      8040   288.03242     -274.98272     -1566.0734      1287.805     
      8050   334.80171     -275.34168     -598.21429      1286.9264    
      8060   343.97109     -275.39471      440.38876      1285.9492    
      8070   346.47382     -275.3991       1011.7006      1285.0562    
      8080   317.21689     -275.15124      1303.012       1284.3553    
      8090   261.4358      -274.68942      1384.3665      1283.8997    
      8100   258.70337     -274.65532      1152.7457      1283.699     
      8110   253.49149     -274.59096      1130.8218      1283.7197    
      8120   283.87641     -274.80396      1177.6698      1283.9534    
      8130   335.77841     -275.1744       1159.9682      1284.4068    
      8140   344.88927     -275.18479      1152.0385      1285.0786    
      8150   331.59705     -275.01196      845.29978      1285.9632    
      8160   397.20641     -275.47713     -243.68823      1286.9941    
      8170   370.78618     -275.19501     -1160.3788      1287.9887    
      8180   277.44902     -274.38733     -1763.4675      1288.7794    
      8190   324.72641     -274.72679     -2684.6858      1289.241     
      8200   339.06644     -274.79071     -2850.9991      1289.2238    
      8210   258.18533     -274.08805     -1901.3235      1288.7047    
      8220   323.0435      -274.57227     -1243.5202      1287.8352    
      8230   420.21716     -275.30672     -695.86252      1286.7432    
      8240   302.8621      -274.31005      695.34318      1285.55      
      8250   280.94942     -274.10404      1777.0085      1284.4891    
      8260   422.62363     -275.22364      2151.9211      1283.7513    
      8270   384.19335     -274.8893       2800.5941      1283.4246    
      8280   336.09898     -274.49631      2963.4348      1283.612     
      8290   437.70184     -275.33807      2043.8706      1284.3309    
      8300   379.67335     -274.90663      1163.449       1285.4348    
      8310   276.43581     -274.10959     -42.954324      1286.7538    
      8320   353.14771     -274.78118     -1962.673       1288.0554    
      8330   316.09853     -274.53941     -2894.3973      1289.0167    
      8340   227.83875     -273.86668     -2872.0571      1289.4626    
      8350   329.23007     -274.7378      -2858.4414      1289.3783    
      8360   353.56746     -274.99883     -1919.6237      1288.7874    
      8370   310.18456     -274.70885     -465.17829      1287.8589    
      8380   400.53093     -275.51809      181.95503      1286.8385    
      8390   423.11001     -275.80781      634.8361       1285.8595    
      8400   311.05402     -274.99786      1139.2369      1285.0097    
      8410   274.2847      -274.77092      1019.9135      1284.3661    
      8420   268.57559     -274.77978      901.7076       1283.9166    
      8430   244.57583     -274.62022      1280.084       1283.6477    
      8440   288.03643     -274.99887      1391.4585      1283.6134    
      8450   304.84953     -275.1566       1336.7403      1283.8378    
      8460   277.89532     -274.95283      1199.7595      1284.3127    
      8470   313.04456     -275.25156      593.89389      1285.005     
      8480   313.69291     -275.26955     -43.166841      1285.812     
      8490   275.42134     -274.96828     -403.79465      1286.622     
      8500   318.92326     -275.33111     -957.0226       1287.3587    
      8510   327.52741     -275.4118      -1365.3937      1287.9271    
      8520   295.1222      -275.16046     -1489.5827      1288.2544    
      8530   321.25354     -275.38677     -1827.5931      1288.308     
      8540   316.06628     -275.36189     -2177.3433      1288.0293    
      8550   239.30559     -274.75214     -2039.9715      1287.3634    
      8560   220.40233     -274.60501     -1550.333       1286.3301    
      8570   246.02365     -274.81108     -400.42513      1285.026     
      8580   241.22987     -274.75919      1422.4405      1283.6671    
      8590   298.62772     -275.20476      2942.4527      1282.5707    
      8600   395.55149     -275.96653      3660.9645      1282.0074    
      8610   389.46674     -275.9037       3549.1065      1282.1098    
      8620   309.27261     -275.25544      2606.2438      1282.8564    
      8630   261.5572      -274.87383      1218.3624      1284.0817    
      8640   257.02505     -274.83795     -297.34036      1285.5351    
      8650   255.29581     -274.81722     -1432.7058      1286.9473    
      8660   260.89997     -274.84882     -2156.4076      1288.1083    
      8670   294.58314     -275.10164     -2644.9503      1288.8805    
      8680   330.46896     -275.36754     -2792.4303      1289.1743    
      8690   287.67755     -274.99385     -2457.9736      1288.9658    
      8700   285.29101     -274.94992     -2060.1223      1288.3078    
      8710   311.8203      -275.13487     -1284.7503      1287.28      
      8720   295.12847     -274.9633       76.387532      1286.0302    
      8730   302.65416     -274.98535      1407.1542      1284.7998    
      8740   376.56074     -275.53941      2111.8416      1283.823     
      8750   356.27853     -275.32842      2550.1794      1283.2374    
      8760   303.00467     -274.86122      2441.6767      1283.118     
      8770   331.18336     -275.05925      1565.0707      1283.4398    
      8780   275.40509     -274.57243      794.25593      1284.0586    
      8790   187.79854     -273.82895      371.06297      1284.8367    
      8800   289.93131     -274.61629     -168.55702      1285.6859    
      8810   385.66004     -275.31696     -271.98432      1286.5199    
      8820   367.59989     -275.09259     -225.29493      1287.3164    
      8830   404.47157     -275.32924     -823.99089      1288.0693    
      8840   394.17097     -275.19579     -1427.4287      1288.6803    
      8850   299.66023     -274.39772     -1759.0198      1289.0414    
      8860   306.36094     -274.43082     -2185.9222      1289.0806    
      8870   346.90408     -274.7377      -2103.3905      1288.7291    
      8880   323.68451     -274.52985     -1357.1097      1288.0042    
      8890   331.99779     -274.58379     -559.41146      1287.0327    
      8900   369.26087     -274.87812      228.79738      1285.9609    
      8910   328.75406     -274.54797      1273.8362      1284.9404    
      8920   327.67135     -274.54596      1890.7644      1284.1504    
      8930   352.00378     -274.75913      2060.3206      1283.7047    
      8940   333.73959     -274.63656      2164.4454      1283.6431    
      8950   351.91057     -274.82433      1926.5458      1283.9804    
      8960   348.22491     -274.85284      1479.8813      1284.6781    
      8970   345.55047     -274.90601      786.11966      1285.656     
      8980   383.28026     -275.31588     -392.58883      1286.7833    
      8990   334.17214     -275.04086     -1376.7485      1287.8558    
      9000   246.89868     -274.43162     -2073.3858      1288.6909    
      9010   268.44466     -274.68492     -2793.6853      1289.1502    
      9020   305.31847     -275.06231     -2998.5503      1289.1066    
      9030   273.9944      -274.87061     -2317.6328      1288.5268    
      9040   307.26303     -275.19177     -1424.0513      1287.5213    
      9050   337.39011     -275.48593     -331.69038      1286.2556    
      9060   294.28097     -275.17737      933.43178      1284.9308    
      9070   279.80945     -275.09002      1833.4108      1283.7705    
      9080   314.96557     -275.40289      2142.5207      1282.9362    
      9090   288.50715     -275.21205      2264.0399      1282.4944    
      9100   261.40139     -275.00971      2175.7324      1282.4683    
      9110   280.26797     -275.17669      1874.7141      1282.8441    
      9120   273.43802     -275.1302       1497.7859      1283.573     
      9130   278.42511     -275.17575      845.24972      1284.5857    
      9140   309.4084      -275.43051     -17.208994      1285.7661    
      9150   290.78983     -275.28052     -870.80308      1286.9617    
      9160   266.66925     -275.08376     -1967.3321      1288.0089    
      9170   259.86959     -275.02365     -2898.1672      1288.7085    
      9180   250.78898     -274.93952     -2953.4667      1288.8959    
      9190   289.09084     -275.23563     -2403.1679      1288.5498    
      9200   332.43933     -275.56806     -1557.13        1287.7635    
      9210   317.26505     -275.42603     -469.40847      1286.691     
      9220   296.86571     -275.2446       394.91699      1285.5235    
      9230   299.1484      -275.24771      899.98992      1284.417     
      9240   260.64605     -274.91672      1452.0341      1283.4728    
      9250   257.92716     -274.8735       1812.7754      1282.7883    
      9260   300.04424     -275.18676      1995.2078      1282.4322    
      9270   268.47391     -274.89497      2424.1825      1282.4505    
      9280   280.09712     -274.95308      2455.3936      1282.915     
      9290   350.82673     -275.48174      1735.2465      1283.832     
      9300   321.10985     -275.19122      780.69346      1285.0864    
      9310   275.23305     -274.7772      -444.62425      1286.5053    
      9320   328.53858     -275.16625     -1940.0922      1287.8621    
      9330   306.93366     -274.94034     -2546.8404      1288.8991    
      9340   263.05583     -274.53983     -2403.2341      1289.4948    
      9350   369.96316     -275.36059     -2597.3076      1289.6489    
      9360   407.05047     -275.60877     -2531.7368      1289.3319    
      9370   289.06422     -274.61613     -1820.3439      1288.5574    
      9380   274.92249     -274.47823     -1321.2993      1287.4333    
      9390   302.41556     -274.67255     -613.19608      1286.0562    
      9400   258.50692     -274.28201      796.30382      1284.563     
      9410   297.43507     -274.5613       2221.0228      1283.2002    
      9420   405.80283     -275.39317      3364.6922      1282.2284    
      9430   391.59303     -275.23601      4226.3489      1281.867     
      9440   361.08543     -274.96896      3898.423       1282.2683    
      9450   361.06368     -274.9642       2501.1799      1283.3876    
      9460   328.98218     -274.70815      941.37517      1284.9961    
      9470   306.25493     -274.53244     -621.81632      1286.8165    
      9480   323.65079     -274.68623     -2216.7382      1288.5602    
      9490   303.78567     -274.54105     -3205.7751      1289.94      
      9500   302.86761     -274.55521     -3743.6755      1290.7587    
      9510   338.51549     -274.87864     -3917.4579      1290.9028    
      9520   342.66711     -274.96568     -3478.3926      1290.3317    
      9530   310.71267     -274.77662     -2376.7964      1289.1166    
      9540   300.16861     -274.7717      -992.84808      1287.4456    
      9550   314.68941     -274.98317      545.82712      1285.5676    
      9560   331.57263     -275.22572      2176.9742      1283.7655    
      9570   352.78933     -275.51604      3218.8584      1282.3305    
      9580   333.17973     -275.47548      3560.6607      1281.4599    
      9590   285.69357     -275.18676      3356.495       1281.2288    
      9600   250.33904     -274.96846      2606.5106      1281.6101    
      9610   222.77921     -274.78914      1727.9738      1282.4848    
      9620   222.48163     -274.81304      988.59858      1283.7055    
      9630   268.65175     -275.20485      87.785823      1285.1381    
      9640   304.37947     -275.50682     -983.27014      1286.6205    
      9650   294.47765     -275.43514     -1770.6343      1287.9635    
      9660   298.93466     -275.47916     -2343.8361      1289.0144    
      9670   311.76377     -275.59167     -2826.1485      1289.6567    
      9680   296.81863     -275.47966     -3033.0567      1289.7942    
      9690   272.72033     -275.2925      -2899.5514      1289.3777    
      9700   263.79008     -275.2258      -2461.0176      1288.4193    
      9710   245.77839     -275.07974     -1519.2682      1286.9944    
      9720   227.03105     -274.91965     -222.56929      1285.2673    
      9730   258.64235     -275.1595       1025.3178      1283.4664    
      9740   298.10742     -275.45255      2305.0161      1281.8232    
      9750   257.93825     -275.09294      3851.1322      1280.5834    
      9760   262.31922     -275.09525      4657.8849      1280.0208    
      9770   329.27185     -275.59858      4433.8825      1280.2944    
      9780   302.45306     -275.33765      3736.8235      1281.3937    
      9790   287.46776     -275.17957      2276.2487      1283.2046    
      9800   354.15214     -275.68083      156.37141      1285.4765    
      9810   322.00997     -275.37713     -1664.7536      1287.8452    
      9820   230.7398      -274.60062     -3249.3586      1289.9699    
      9830   258.06748     -274.78747     -4914.4564      1291.5378    
      9840   295.06889     -275.04136     -5655.4234      1292.2382    
      9850   240.70841     -274.55358     -5015.8607      1291.9194    
      9860   283.77821     -274.8606      -3975.0139      1290.6603    
      9870   335.23121     -275.22316     -2291.3578      1288.645     
      9880   309.25723     -274.95791      208.20793      1286.1802    
      9890   363.66536     -275.35084      2485.1321      1283.7059    
      9900   414.39089     -275.71902      4166.025       1281.64      
      9910   322.94498     -274.9517       5150.5611      1280.3002    
      9920   284.46053     -274.6291       4813.231       1279.8674    
      9930   302.64951     -274.76974      3890.1264      1280.3108    
      9940   277.77809     -274.56026      3029.0322      1281.4907    
      9950   281.78872     -274.58456      1822.0332      1283.2583    
      9960   335.31002     -275.0088       206.66497      1285.4034    
      9970   313.76599     -274.82237     -1183.7205      1287.648     
      9980   310.61308     -274.78837     -2608.3621      1289.7284    
      9990   330.33468     -274.94219     -3944.0358      1291.3739    
     10000   312.42011     -274.79363     -4523.7208      1292.3345    
     10010   353.54553     -275.13257     -4650.4133      1292.4778    
     10020   392.49966     -275.46809     -4281.3354      1291.7641    
     10030   340.04275     -275.0766      -3037.327       1290.2541    
     10040   290.36073     -274.70894     -1351.648       1288.16      
     10050   314.48848     -274.94235      76.390619      1285.7747    
     10060   277.90915     -274.6804       1557.2275      1283.367     
     10070   248.44576     -274.46759      2969.347       1281.2076    
     10080   283.93377     -274.78017      4230.8584      1279.5583    
     10090   289.1054      -274.84729      5552.1716      1278.6643    
     10100   319.49095     -275.12474      6096.9476      1278.7684    
     10110   382.02297     -275.68407      5214.5297      1279.98      
     10120   340.67361     -275.4199       3474.2864      1282.1742    
     10130   288.93495     -275.0752       1030.9357      1285.0544    
     10140   286.97959     -275.1339      -1895.7692      1288.1864    
     10150   278.42846     -275.14156     -4580.4804      1291.0402    
     10160   238.57646     -274.88528     -6254.4615      1293.116     
     10170   274.25779     -275.24286     -7020.9265      1294.0745    
     10180   294.06388     -275.4824      -6670.8516      1293.7523    
     10190   254.2589      -275.23148     -5285.7576      1292.1919    
     10200   224.36394     -275.04203     -3341.7238      1289.6276    
     10210   242.31842     -275.22455     -1025.3521      1286.4086    
     10220   278.44167     -275.54151      1717.6184      1282.9622    
     10230   291.8824      -275.66269      4490.6806      1279.7877    
     10240   288.22329     -275.6377       6569.0221      1277.3861    
     10250   283.1279      -275.59969      7472.9846      1276.1383    
     10260   260.55168     -275.42021      7199.2277      1276.2257    
     10270   246.25445     -275.30783      5931.7573      1277.623     
     10280   246.11436     -275.3067       3812.5136      1280.1266    
     10290   238.83996     -275.23958      1074.0364      1283.3752    
     10300   221.60015     -275.08069     -1684.5782      1286.8888    
     10310   255.95275     -275.33065     -4091.6608      1290.1638    
     10320   292.92275     -275.59261     -5804.382       1292.7482    
     10330   278.51352     -275.43789     -6731.5115      1294.3054    
     10340   269.42109     -275.33299     -7014.6511      1294.6365    
     10350   282.97805     -275.4162      -6422.2176      1293.672     
     10360   271.35586     -275.29633     -4742.2775      1291.5113    
     10370   263.28115     -275.20427     -2279.7308      1288.4529    
     10380   286.74501     -275.36077      409.2522       1284.9407    
     10390   297.98466     -275.40886      2977.2683      1281.4657    
     10400   280.61197     -275.22176      5263.9313      1278.499     
     10410   256.35588     -274.98034      6949.1686      1276.4567    
     10420   246.35032     -274.85766      7753.0123      1275.6503    
     10430   271.57824     -275.0226       7395.9768      1276.2352    
[...]
     47800   290.56365     -275.00324      5219.4651      1278.3875    
     47810   269.1937      -274.83272      4983.8648      1279.0449    
     47820   288.2578      -274.99066      4028.0258      1280.5886    
     47830   319.74777     -275.24776      2422.5548      1282.8386    
     47840   330.11999     -275.33353      386.36889      1285.5005    
     47850   313.97261     -275.20445     -1794.0321      1288.2045    
     47860   296.93054     -275.06755     -3795.6411      1290.5544    
     47870   293.97234     -275.04465     -5215.6401      1292.1902    
     47880   298.99488     -275.08856     -5772.8032      1292.8605    
     47890   298.55256     -275.0916      -5425.8797      1292.4738    
     47900   293.44816     -275.0594      -4307.0042      1291.1069    
     47910   291.59453     -275.05359     -2670.4113      1288.9774    
     47920   279.9059      -274.9645      -719.05323      1286.3964    
     47930   266.78524     -274.85715      1290.8295      1283.7251    
     47940   297.45763     -275.09984      3099.3182      1281.3263    
     47950   313.05917     -275.21657      4683.2166      1279.5239    
     47960   305.33617     -275.14563      5682.4609      1278.5894    
     47970   316.57164     -275.23354      5686.3165      1278.6855    
     47980   320.8822      -275.27055      4748.0521      1279.8039    
     47990   300.63792     -275.11144      3139.1962      1281.7724    
     48000   300.66287     -275.11711      948.6206       1284.2948    
     48010   287.03557     -275.00791     -1342.0336      1286.9771    
     48020   264.51854     -274.82078     -3214.0241      1289.4065    
     48030   285.19041     -274.98015     -4567.9595      1291.2384    
     48040   294.58793     -275.04465     -5152.0408      1292.2293    
     48050   298.79824     -275.0672      -5035.5875      1292.2743    
     48060   322.86921     -275.25252     -4382.5677      1291.3997    
     48070   312.97845     -275.16346     -3148.5928      1289.7368    
     48080   277.85484     -274.86902     -1402.1467      1287.5216    
     48090   303.08461     -275.06096      443.86866      1285.0744    
     48100   326.67431     -275.2335       2248.2175      1282.7349    
     48110   309.72263     -275.07582      3849.6009      1280.8288    
     48120   304.23813     -275.01336      4771.9482      1279.6337    
     48130   312.6027      -275.06559      4886.4413      1279.3078    
     48140   291.16596     -274.87766      4513.2149      1279.872     
     48150   281.61146     -274.78707      3551.034       1281.2521    
     48160   306.57948     -274.97346      1943.1274      1283.27      
     48170   314.52201     -275.01631      91.284042      1285.6391    
     48180   318.97889     -275.02872     -1684.4829      1288.0244    
     48190   312.08332     -274.94779     -3195.5747      1290.1014    
     48200   317.14065     -274.96502     -4373.1229      1291.5907    
     48210   336.86434     -275.10427     -4989.0607      1292.2778    
     48220   328.6735      -275.02288     -4799.6118      1292.055     
     48230   311.34359     -274.87403     -3897.3393      1290.9601    
     48240   307.99746     -274.84158     -2481.3792      1289.163     
     48250   309.98785     -274.85201     -830.33068      1286.9269    
     48260   314.25258     -274.87954      887.55261      1284.5574    
     48270   321.78211     -274.93357      2574.8536      1282.369     
     48280   306.00381     -274.799        4081.7461      1280.6662    
     48290   315.47066     -274.87285      4952.5185      1279.7113    
     48300   326.45261     -274.96432      5092.8772      1279.6574    
     48310   309.1087      -274.8317       4478.5034      1280.527     
     48320   324.64103     -274.97149      3017.1028      1282.2053    
     48330   347.27796     -275.17522      1118.4629      1284.4332    
     48340   318.28437     -274.9643      -771.4872       1286.8721    
     48350   307.59136     -274.90465     -2728.8191      1289.1709    
     48360   310.61706     -274.95979     -4220.9496      1290.9757    
     48370   303.63096     -274.93894     -4900.5153      1292.0136    
     48380   301.71876     -274.96484     -4939.6903      1292.155     
     48390   314.6363      -275.12034     -4553.283       1291.3899    
     48400   271.57065     -274.82263     -3395.3147      1289.8012    
     48410   269.22202     -274.84947     -1720.5022      1287.6026    
     48420   319.58409     -275.30755      232.42946      1285.1044    
     48430   304.22098     -275.233        2409.1664      1282.6682    
     48440   282.60299     -275.10213      4152.4556      1280.6807    
     48450   314.24068     -275.40668      4951.1566      1279.4474    
     48460   295.75769     -275.30853      5125.7176      1279.1164    
     48470   261.41925     -275.07562      4547.0692      1279.7146    
     48480   289.7974      -275.35089      3068.22        1281.1326    
     48490   271.45154     -275.24212      1408.5072      1283.1154    
     48500   250.33232     -275.09978     -312.71552      1285.3617    
     48510   279.41763     -275.35856     -2029.1941      1287.5561    
     48520   264.85575     -275.25639     -3246.1744      1289.39      
     48530   240.80583     -275.06953     -3998.9775      1290.6354    
     48540   286.85637     -275.44921     -4546.4168      1291.1455    
     48550   298.83001     -275.55117     -4407.6896      1290.8275    
     48560   258.27034     -275.22506     -3370.939       1289.7125    
     48570   271.79789     -275.33541     -1957.5483      1287.9856    
     48580   290.60511     -275.48237     -340.43429      1285.9093    
     48590   281.70124     -275.39897      1278.6804      1283.7804    
     48600   271.77417     -275.30284      2599.0702      1281.8912    
     48610   259.26796     -275.18063      3541.4507      1280.4802    
     48620   252.61368     -275.10031      4061.6349      1279.7162    
     48630   267.15284     -275.1849       4076.1157      1279.6912    
     48640   270.9823      -275.17273      3612.3829      1280.4079    
     48650   283.87216     -275.22461      2802.0028      1281.7855    
     48660   300.29669     -275.29186      1665.2324      1283.679     
     48670   302.87332     -275.23545      151.28353      1285.8817    
     48680   311.65978     -275.22119     -1649.6341      1288.1174    
     48690   314.1749      -275.151       -3260.3467      1290.0609    
     48700   303.79556     -274.97987     -4341.6757      1291.4166    
     48710   323.48229     -275.06139     -4850.4922      1291.9812    
     48720   322.82364     -274.98684     -4620.9878      1291.6617    
     48730   277.24339     -274.56552     -3747.8984      1290.4997    
     48740   291.10247     -274.63946     -2467.5133      1288.6543    
     48750   310.20398     -274.75831     -568.8046       1286.3703    
     48760   322.91283     -274.83046      1514.9852      1283.993     
     48770   349.93086     -275.02622      3243.4454      1281.8966    
     48780   338.94268     -274.92294      4612.8764      1280.3972    
     48790   329.67537     -274.84379      5313.9562      1279.7373    
     48800   364.03972     -275.13022      5046.7445      1280.0385    
     48810   347.25059     -275.01208      4129.6917      1281.2602    
     48820   297.2378      -274.62719      2490.0816      1283.2367    
     48830   317.41316     -274.81064      128.78761      1285.6702    
     48840   335.93796     -274.98061     -2040.6669      1288.144     
     48850   285.15406     -274.58453     -3489.6161      1290.2657    
     48860   304.23819     -274.75485     -4712.3051      1291.7525    
     48870   330.30469     -274.98619     -5292.9336      1292.3812    
     48880   297.57622     -274.74337     -4816.2561      1292.0489    
     48890   311.86133     -274.88539     -3784.2625      1290.8338    
     48900   342.65956     -275.16698     -2157.2163      1288.9315    
     48910   318.43445     -275.00386     -139.45021      1286.6433    
     48920   338.29771     -275.20071      1498.1221      1284.3295    
     48930   365.11982     -275.46549      2778.0755      1282.2921    
     48940   277.93635     -274.80357      4026.3946      1280.7713    
     48950   252.53526     -274.63294      4481.7868      1279.9782    
     48960   298.91998     -275.04666      4154.09        1279.9957    
     48970   276.14042     -274.89743      3623.8187      1280.7762    
     48980   270.41509     -274.88136      2627.9033      1282.2204    
     48990   320.24401     -275.31704      1121.4634      1284.1485    
     49000   311.55853     -275.27761     -358.74734      1286.2973    
     49010   295.63858     -275.17687     -1970.2308      1288.3915    
     49020   306.62017     -275.29412     -3572.3067      1290.1332    
     49030   283.78015     -275.13501     -4399.5245      1291.2358    
     49040   287.66069     -275.19212     -4564.68        1291.5388    
     49050   305.72554     -275.36763     -4215.8707      1291.0064    
     49060   270.31014     -275.10735     -3226.0546      1289.7059    
     49070   263.10863     -275.0712      -1898.6414      1287.8158    
     49080   286.79383     -275.2822      -328.0648       1285.5814    
     49090   258.52538     -275.06403      1551.8434      1283.2958    
     49100   257.93796     -275.06373      3150.1657      1281.2934    
     49110   283.7858      -275.27384      4261.4439      1279.8622    
     49120   273.22191     -275.18488      5057.1251      1279.2086    
     49130   300.53971     -275.40415      5064.8619      1279.4699    
     49140   333.69098     -275.67289      4105.2356      1280.6486    
     49150   290.78718     -275.32584      2498.5888      1282.5811    
     49160   260.82638     -275.08167      359.05679      1284.9791    
     49170   279.50622     -275.22508     -1908.2663      1287.4575    
     49180   254.10856     -274.99971     -3511.4399      1289.6113    
     49190   258.52873     -275.00863     -4513.1689      1291.1365    
     49200   291.64525     -275.2375      -4914.0983      1291.8422    
     49210   295.40729     -275.21455     -4633.4657      1291.6514    
     49220   293.95637     -275.1405      -3790.3705      1290.612     
     49230   300.20765     -275.11809     -2444.2825      1288.8795    
     49240   291.88205     -274.96865     -624.32989      1286.7043    
     49250   322.99998     -275.13259      1127.3224      1284.4138    
     49260   348.20341     -275.24138      2711.7311      1282.3302    
     49270   317.36567     -274.90586      4264.172       1280.7466    
     49280   306.83482     -274.75295      5097.7607      1279.9343    
     49290   337.23771     -274.9415       4816.0028      1280.0397    
     49300   311.15523     -274.68123      3907.9353      1281.0249    
     49310   307.94359     -274.6187       2419.0783      1282.7282    
     49320   328.48097     -274.75188      718.71552      1284.8884    
     49330   323.32971     -274.6796      -828.73965      1287.2029    
     49340   333.89424     -274.73993     -2357.2022      1289.3839    
     49350   361.74274     -274.9468      -3696.7224      1291.1481    
     49360   343.29225     -274.78729     -4396.9766      1292.2513    
     49370   343.42983     -274.79034     -4694.503       1292.5517    
     49380   361.52906     -274.95143     -4428.8411      1291.9933    
     49390   324.32085     -274.67276     -3463.9647      1290.6255    
     49400   310.55756     -274.58755     -1997.639       1288.6237    
     49410   348.65794     -274.92837     -270.68844      1286.2554    
     49420   331.25155     -274.8227       1782.6914      1283.8431    
     49430   297.88476     -274.58629      3594.6081      1281.7542    
     49440   308.79057     -274.70995      4644.357       1280.3113    
     49450   327.61637     -274.9044       4991.8718      1279.7082    
     49460   329.08805     -274.96544      4765.458       1280.0137    
     49470   342.67026     -275.13476      3836.5482      1281.1888    
     49480   324.5894      -275.0521       2347.7881      1283.0739    
     49490   312.3996      -275.01562      383.09858      1285.4023    
     49500   296.96235     -274.94659     -1567.6647      1287.8246    
     49510   290.19436     -274.93955     -3246.4009      1289.9828    
     49520   299.34698     -275.05655     -4459.2118      1291.5648    
     49530   315.35605     -275.22906     -5138.4204      1292.3392    
     49540   297.73071     -275.12757     -5128.1079      1292.1761    
     49550   281.68689     -275.03399     -4396.8426      1291.0729    
     49560   282.41972     -275.07186     -2956.0657      1289.1627    
     49570   261.90396     -274.92723     -891.86962      1286.712     
     49580   284.95741     -275.1275       1164.0446      1284.0918    
     49590   316.9158      -275.39558      2998.2931      1281.6775    
     49600   291.88109     -275.19757      4688.6985      1279.8082    
     49610   298.5573      -275.25728      5508.3773      1278.7795    
     49620   318.22648     -275.42604      5392.6763      1278.7437    
     49630   279.38482     -275.12115      4578.5424      1279.6895    
     49640   261.51593     -274.98437      2988.2793      1281.4741    
     49650   278.71208     -275.12723      1052.9335      1283.8214    
     49660   262.82673     -274.99342     -665.28849      1286.392     
     49670   289.0694      -275.19657     -2467.6484      1288.8637    
     49680   323.10119     -275.45942     -4151.6417      1290.904     
     49690   287.14704     -275.15494     -5132.1918      1292.204     
     49700   272.17215     -275.02403     -5486.142       1292.5703    
     49710   293.44378     -275.18882     -5078.94        1291.9314    
     49720   262.26849     -274.92612     -3652.2443      1290.3639    
     49730   272.38732     -274.99649     -1822.0403      1288.1196    
     49740   341.65104     -275.54123      110.77643      1285.5327    
     49750   333.85067     -275.45824      2288.4291      1282.9647    
     49760   292.76532     -275.10885      3991.7547      1280.8035    
     49770   293.82177     -275.10451      4598.3142      1279.3496    
     49780   258.88606     -274.80713      4882.0152      1278.7299    
     49790   246.79033     -274.69457      4904.3593      1279.0007    
     49800   306.94006     -275.16512      4059.4133      1280.1613    
     49810   297.53223     -275.06537      2918.1001      1282.0794    
     49820   300.26368     -275.06478      1225.4292      1284.5493    
     49830   352.22351     -275.46006     -1050.3172      1287.2652    
     49840   320.50444     -275.1746      -3023.4975      1289.8248    
     49850   279.26824     -274.81583     -4578.5286      1291.8581    
     49860   304.60538     -274.99778     -5726.7312      1293.0656    
     49870   304.94244     -274.97525     -5872.7995      1293.2341    
     49880   288.88418     -274.82123     -5020.5278      1292.3273    
     49890   331.95307     -275.14517     -3627.0714      1290.4904    
     49900   341.22143     -275.18744     -1688.0544      1287.9813    
     49910   292.10972     -274.75206      610.0428       1285.1568    
     49920   300.39472     -274.77552      2533.8001      1282.4267    
     49930   303.5706      -274.74041      4268.221       1280.1483    
     49940   290.73423     -274.56272      5913.4231      1278.6422    
     49950   333.93149     -274.82543      6687.1658      1278.1984    
     49960   406.23585     -275.30368      6204.9891      1278.9606    
     49970   397.19157     -275.122        4754.3767      1280.8606    
     49980   352.61626     -274.67706      2414.1337      1283.6483    
     49990   341.8259      -274.52027     -482.4629       1286.9107    
     50000   326.4429      -274.33096     -3224.8072      1290.1298    
Loop time of 3.3329 on 1 procs for 50000 steps with 64 atoms

Performance: 1296.167 ns/day, 0.019 hours/ns, 15001.938 timesteps/s, 960.124 katom-step/s
98.1% CPU use with 1 MPI tasks x 1 OpenMP threads

MPI task timing breakdown:
Section |  min time  |  avg time  |  max time  |%varavg| %total
---------------------------------------------------------------
Pair    | 3.0266     | 3.0266     | 3.0266     |   0.0 | 90.81
Neigh   | 0          | 0          | 0          |   0.0 |  0.00
Comm    | 0.084438   | 0.084438   | 0.084438   |   0.0 |  2.53
Output  | 0.028617   | 0.028617   | 0.028617   |   0.0 |  0.86
Modify  | 0.17482    | 0.17482    | 0.17482    |   0.0 |  5.25
Other   |            | 0.01845    |            |       |  0.55

Nlocal:             64 ave          64 max          64 min
Histogram: 1 0 0 0 0 0 0 0 0 0
Nghost:            557 ave         557 max         557 min
Histogram: 1 0 0 0 0 0 0 0 0 0
Neighs:              0 ave           0 max           0 min
Histogram: 1 0 0 0 0 0 0 0 0 0
FullNghs:         2176 ave        2176 max        2176 min
Histogram: 1 0 0 0 0 0 0 0 0 0

Total # of neighbors = 2176
Ave neighs/atom = 34
Neighbor list builds = 0
Dangerous builds = 0


min_style cg
minimize 1e-10 1e-10 5000 10000
Per MPI rank memory allocation (min/avg/max) = 5.579 | 5.579 | 5.579 Mbytes
   Step          Temp          PotEng         Press          Volume    
     50000   326.4429      -274.33096     -3224.8072      1290.1298    
     50010   326.4429      -277.52401     -4542.6081      1290.1298    
     50017   326.4429      -277.52415     -4542.5936      1290.1298    
Loop time of 0.00140301 on 1 procs for 17 steps with 64 atoms

99.7% CPU use with 1 MPI tasks x 1 OpenMP threads

Minimization stats:
  Stopping criterion = energy tolerance
  Energy initial, next-to-last, final = 
     -274.330955718266  -277.524150903966  -277.524150927592
  Force two-norm initial, final = 9.850334 0.00037291182
  Force max component initial, final = 2.2653988 7.7656902e-05
  Final line search alpha, max atom move = 1 7.7656902e-05
  Iterations, force evaluations = 17 34

MPI task timing breakdown:
Section |  min time  |  avg time  |  max time  |%varavg| %total
---------------------------------------------------------------
Pair    | 0.0012064  | 0.0012064  | 0.0012064  |   0.0 | 85.99
Neigh   | 0          | 0          | 0          |   0.0 |  0.00
Comm    | 5.7638e-05 | 5.7638e-05 | 5.7638e-05 |   0.0 |  4.11
Output  | 5.16e-06   | 5.16e-06   | 5.16e-06   |   0.0 |  0.37
Modify  | 0          | 0          | 0          |   0.0 |  0.00
Other   |            | 0.0001338  |            |       |  9.54

Nlocal:             64 ave          64 max          64 min
Histogram: 1 0 0 0 0 0 0 0 0 0
Nghost:            557 ave         557 max         557 min
Histogram: 1 0 0 0 0 0 0 0 0 0
Neighs:              0 ave           0 max           0 min
Histogram: 1 0 0 0 0 0 0 0 0 0
FullNghs:         2218 ave        2218 max        2218 min
Histogram: 1 0 0 0 0 0 0 0 0 0

Total # of neighbors = 2218
Ave neighs/atom = 34.65625
Neighbor list builds = 0
Dangerous builds = 0
variable teng equal "c_eatoms"
variable natoms equal "count(all)"
variable ecoh equal "v_teng/v_natoms"
variable lengthx equal lx/${xdim}
variable lengthx equal lx/2
variable lengthy equal ly/${ydim}
variable lengthy equal ly/2
variable lengthz equal lz/${zdim}
variable lengthz equal lz/2

print "cohesive energy: ${ecoh}"
cohesive energy: -4.33631485824363
print "x_length equals: ${lengthx}"
x_length equals: 5.44311875968025
print "y_length equals: ${lengthy}"
y_length equals: 5.44311875968025
print "z_length equals: ${lengthz}"
z_length equals: 5.44311875968025

variable lp_x equal ${lengthx}
variable lp_x equal 5.44311875968025
variable lp_y equal ${lengthy}
variable lp_y equal 5.44311875968025
variable lp_z equal ${lengthz}
variable lp_z equal 5.44311875968025

variable lp_avg equal "(v_lp_x + v_lp_y + v_lp_z) / 3"

print "lattice parameter equals ${lp_avg}"
lattice parameter equals 5.44311875968025
Total wall time: 0:00:03
