LAMMPS (30 Mar 2026)
OMP_NUM_THREADS environment is not set. Defaulting to 1 thread.
  using 1 OpenMP thread(s) per MPI task

# ------------------ Initialization ------------------
units           metal
boundary        p p p
atom_style      atomic

# ------------------ Geometry Generation -------------
# Silicon diamond cubic lattice constant is 5.431 Angstroms

variable pwd_path getenv PWD

variable structure_file string ../structures/si_structure.txt

read_data ../structures/si_structure.txt
Reading data file ...
  orthogonal box = (0 0 0) to (16.29 16.29 16.29)
  1 by 1 by 1 MPI processor grid
  reading atoms ...
  216 atoms
  read_data CPU = 0.001 seconds

# ------------------ Interatomic Potential -----------
# Using the standard Stillinger-Weber (SW) potential
pair_style      sw
pair_coeff      * * ../potentials/Si.sw Si
Reading sw potential file ../potentials/Si.sw with DATE: 2007-06-11


# ------------------ Compute -----------------
compute eng all pe/atom 	# a variable named 'eng' is defined to store the potential energy for each atom
compute eatoms all reduce sum c_eng  #a variable named 'eatoms' is defined to store the sum of all 'eng' values
compute new all temp


# ------------------ Energy Minimization -------------
# Relax the structure to remove any initial overlapping/strain
thermo          10
thermo_style    custom step temp pe press vol

minimize 1.0e-6 1.0e-6 5000 10000
Neighbor list info ...
  update: every = 1 steps, delay = 0 steps, check = yes
  max neighbors/atom: 2000, page size: 100000
  master list distance cutoff = 5.77118
  ghost atom cutoff = 5.77118
  binsize = 2.88559, bins = 6 6 6
  1 neighbor lists, perpetual/occasional/extra = 1 0 0
  (1) pair sw, perpetual
      attributes: full, newton on
      pair build: full/bin/atomonly
      stencil: full/bin/3d
      bin: standard
Per MPI rank memory allocation (min/avg/max) = 4.343 | 4.343 | 4.343 Mbytes
   Step          Temp          PotEng         Press          Volume    
         0   0             -936.70522      532.56802      4322.7812    
         1   0             -936.70522      532.56802      4322.7812    
Loop time of 0.000360633 on 1 procs for 1 steps with 216 atoms

37.7% CPU use with 1 MPI tasks x 1 OpenMP threads

Minimization stats:
  Stopping criterion = quadratic factors are zero
  Energy initial, next-to-last, final = 
     -936.705223045316  -936.705223045316  -936.705223045316
  Force two-norm initial, final = 1.1685261e-17 1.1685261e-17
  Force max component initial, final = 8.6736205e-19 8.6736205e-19
  Final line search alpha, max atom move = 1 8.6736205e-19
  Iterations, force evaluations = 1 2

MPI task timing breakdown:
Section |  min time  |  avg time  |  max time  |%varavg| %total
---------------------------------------------------------------
Pair    | 0.00033664 | 0.00033664 | 0.00033664 |   0.0 | 93.35
Neigh   | 0          | 0          | 0          |   0.0 |  0.00
Comm    | 8.907e-06  | 8.907e-06  | 8.907e-06  |   0.0 |  2.47
Output  | 0          | 0          | 0          |   0.0 |  0.00
Modify  | 0          | 0          | 0          |   0.0 |  0.00
Other   |            | 1.509e-05  |            |       |  4.18

Nlocal:            216 ave         216 max         216 min
Histogram: 1 0 0 0 0 0 0 0 0 0
Nghost:            950 ave         950 max         950 min
Histogram: 1 0 0 0 0 0 0 0 0 0
Neighs:              0 ave           0 max           0 min
Histogram: 1 0 0 0 0 0 0 0 0 0
FullNghs:         7344 ave        7344 max        7344 min
Histogram: 1 0 0 0 0 0 0 0 0 0

Total # of neighbors = 7344
Ave neighs/atom = 34
Neighbor list builds = 0
Dangerous builds = 0

# ------------------ Equilibration (NVT/NPT) ---------
reset_timestep  0
velocity all create ${temperature} 87287 loop geom
velocity all create 100 87287 loop geom

# Reference timestep for metal units with Silicon is typically 1-2 fs
timestep        0.001


# Tdamp - 100*Timestep
# Pdamp - 1000*Timestep
#
# Run NPT to fix temperature at 300K and pressure at 0 Bar
fix 1 all npt temp ${temperature} ${temperature} 0.1 iso ${pressure} ${pressure} 1.0
fix 1 all npt temp 100 ${temperature} 0.1 iso ${pressure} ${pressure} 1.0
fix 1 all npt temp 100 100 0.1 iso ${pressure} ${pressure} 1.0
fix 1 all npt temp 100 100 0.1 iso 0.0 ${pressure} 1.0
fix 1 all npt temp 100 100 0.1 iso 0.0 0.0 1.0

# Output settings

variable dump_path string "../results/lattice_parameter/si_out_${temperature}.dat"
../results/lattice_parameter/si_out_100.dat

dump 1 all custom 5000 ${dump_path} mass type xs ys zs
dump 1 all custom 5000 ../results/lattice_parameter/si_out_100.dat mass type xs ys zs

dump_modify 1 sort id

variable first_run_step equal ${steps}
variable first_run_step equal 50000

# Run the simulation
run ${first_run_step}
run 50000
Per MPI rank memory allocation (min/avg/max) = 3.218 | 3.218 | 3.218 Mbytes
   Step          Temp          PotEng         Press          Volume    
         0   100           -936.70522      1219.2552      4322.7812    
        10   53.967774     -935.42216      1058.6359      4323.9046    
        20   31.442174     -934.78818      287.60279      4326.9134    
        30   62.032195     -935.61004     -774.81866      4330.4141    
        40   37.907961     -934.89295     -1241.2185      4332.5698    
        50   30.189883     -934.65133     -1172.3483      4332.4783    
        60   65.297361     -935.58416     -714.29557      4330.2412    
        70   49.866371     -935.10663      239.33221      4326.7535    
        80   45.507572     -934.95287      1044.5334      4323.6921    
        90   71.799016     -935.63876      1267.7843      4322.4919    
       100   53.466121     -935.07933      1075.0957      4323.6093    
       110   48.88691      -934.91419      350.95856      4326.6585    
       120   68.698613     -935.40973     -603.61433      4330.3336    
       130   50.843548     -934.85294     -1122.4758      4332.9603    
       140   51.627865     -934.82783     -1215.6328      4333.5475    
       150   75.678133     -935.4325      -905.38374      4331.9112    
       160   60.263942     -934.93659     -63.48122       4328.6669    
       170   57.491046     -934.80549      788.60713      4325.3056    
       180   78.102149     -935.31016      1206.2987      4323.3506    
       190   63.883562     -934.84479      1213.65        4323.5974    
       200   57.559375     -934.61483      652.56275      4326.0319    
       210   77.047039     -935.09004     -316.71724      4329.6306    
       220   68.931324     -934.7893      -1031.0052      4332.6921    
       230   58.659809     -934.44277     -1260.9971      4333.9019    
       240   70.423827     -934.70618     -1044.4105      4332.8109    
       250   67.151612     -934.54499     -302.62857      4329.8439    
       260   63.61191      -934.38145      629.69582      4326.3403    
       270   83.707642     -934.86524      1211.4525      4323.9579    
       280   87.29918      -934.88094      1292.5884      4323.7687    
       290   72.369811     -934.39609      840.35766      4325.9248    
       300   80.634886     -934.55959     -77.445659      4329.5916    
       310   86.739031     -934.65164     -943.97957      4333.1388    
       320   75.504065     -934.26689     -1353.9818      4334.999     
       330   78.284792     -934.27806     -1235.4603      4334.399     
       340   83.689729     -934.35645     -531.27175      4331.5699    
       350   81.331299     -934.21801      478.70049      4327.7923    
       360   98.624193     -934.6211       1177.46        4324.8576    
       370   105.31042     -934.72445      1343.9938      4324.0454    
       380   80.700723     -933.97494      1005.7097      4325.6813    
       390   79.718619     -933.89265      152.55155      4329.1312    
       400   93.194709     -934.199       -785.88787      4332.8726    
       410   88.368234     -933.99321     -1312.6185      4335.2221    
       420   89.522935     -933.95947     -1308.7831      4335.1932    
       430   91.548145     -933.9492      -725.83256      4332.7949    
       440   88.060346     -933.78693      228.11315      4329.091     
       450   107.20593     -934.24882      1003.0192      4325.778     
       460   105.62054     -934.1328       1396.3903      4324.2845    
       470   85.902935     -933.52964      1263.8605      4325.3313    
       480   107.87926     -934.08673      481.39719      4328.6539    
       490   117.94251     -934.30409     -491.03668      4332.8755    
       500   96.315628     -933.65321     -1232.7987      4336.2394    
       510   115.37599     -934.14065     -1637.965       4337.3456    
       520   114.79337     -934.0864      -1276.6648      4335.4961    
       530   74.509045     -932.94115     -207.23633      4331.3579    
       540   100.21159     -933.62566      798.57897      4326.8029    
       550   127.13305     -934.32986      1516.1488      4323.6921    
       560   86.625071     -933.17369      1786.9299      4323.3576    
       570   101.22331     -933.5578       1066.5965      4326.2152    
       580   135.20693     -934.4729      -171.99109      4331.0158    
       590   93.774885     -933.30287     -1086.7882      4335.5887    
       600   90.104189     -933.18781     -1671.6952      4338.1892    
       610   127.7133      -934.21817     -1689.052       4337.737     
       620   106.87124     -933.63451     -807.50077      4334.2522    
       630   98.999433     -933.41664      379.01646      4329.2821    
       640   117.98953     -933.94538      1326.7374      4324.9694    
       650   103.6174      -933.55334      1810.8159      4323.0665    
       660   107.321       -933.67098      1479.7408      4324.4258    
       670   119.15241     -934.02347      542.61306      4328.4837    
       680   105.62199     -933.67573     -564.861        4333.5745    
       690   118.48614     -934.06617     -1638.1916      4337.6386    
       700   107.62504     -933.81088     -2014.6688      4338.7513    
       710   66.633398     -932.70716     -1371.269       4336.2388    
       720   100.16064     -933.66345     -277.31692      4331.1938    
       730   128.6369      -934.4868       1012.7505      4325.6403    
       740   91.426062     -933.48851      2091.2018      4321.942     
       750   99.489245     -933.74465      2110.258       4321.978     
       760   128.97562     -934.61198      1117.2907      4325.8193    
       770   102.83989     -933.9421      -216.81027      4331.7507    
       780   90.098812     -933.63017     -1558.7453      4337.3197    
       790   97.283318     -933.86781     -2338.2815      4340.0758    
       800   88.509531     -933.66089     -2026.73        4338.6112    
       810   100.56794     -934.03147     -855.06129      4333.4472    
       820   105.39058     -934.20006      727.61366      4326.7147    
       830   86.544917     -933.70216      2078.569       4321.2855    
       840   90.814758     -933.84167      2469.1716      4319.573     
       850   101.09224     -934.15234      1812.1874      4322.3197    
       860   95.791344     -934.02948      447.50787      4328.3894    
       870   99.606377     -934.153       -1177.6645      4335.3147    
       880   100.38286     -934.18859     -2300.5164      4340.1587    
       890   94.400539     -934.03899     -2395.5282      4340.8581    
       900   101.98141     -934.27058     -1566.9647      4337.179     
       910   106.52584     -934.41919     -135.59128      4330.6177    
       920   94.088246     -934.09087      1416.1596      4323.7902    
       930   83.677145     -933.81169      2373.3261      4319.4907    
       940   78.396036     -933.67175      2324.6296      4319.4572    
       950   79.170203     -933.69531      1355.4601      4323.6459    
       960   92.600311     -934.05907     -150.85693      4330.3403    
       970   103.66459     -934.34485     -1577.4797      4336.8291    
       980   98.028496     -934.16524     -2328.9571      4340.5074    
       990   97.419225     -934.1312      -2200.3148      4339.9507    
      1000   103.03405     -934.27292     -1228.1305      4335.364     
      1010   89.509355     -933.87957      342.91354      4328.5312    
      1020   89.493559     -933.85362      1795.9221      4322.2836    
      1030   110.52263     -934.40611      2501.4471      4319.2487    
      1040   100.49029     -934.10197      2262.7109      4320.7429    
      1050   88.511632     -933.75168      1014.5824      4326.3478    
      1060   109.58411     -934.31102     -832.03361      4333.8254    
      1070   97.815413     -933.95026     -2257.3559      4339.8837    
      1080   81.210814     -933.46187     -2711.5177      4341.8852    
      1090   106.55721     -934.14063     -2120.9162      4338.9326    
      1100   103.61367     -934.02939     -515.9744       4332.1149    
      1110   79.739515     -933.33492      1409.212       4324.3331    
      1120   103.26888     -933.94937      2622.3172      4319.0281    
      1130   117.17734     -934.2939       2747.9152      4318.4353    
      1140   99.242022     -933.77051      1763.1725      4322.8274    
      1150   90.252343     -933.49975     -11.706854      4330.4626    
      1160   94.720177     -933.59079     -1785.5972      4338.1662    
      1170   113.2999      -934.06707     -2792.3424      4342.6988    
      1180   123.03691     -934.30844     -2620.5975      4342.1741    
      1190   105.09837     -933.79927     -1371.3215      4336.8572    
      1200   102.91982     -933.73144      360.79899      4328.9823    
      1210   99.001372     -933.60857      2024.0562      4321.7203    
      1220   87.447826     -933.27173      2936.3549      4318.0881    
      1230   115.06657     -934.02879      2521.1406      4319.7226    
      1240   126.812       -934.35372      1076.6321      4325.9585    
      1250   98.674804     -933.57664     -755.37         4334.247     
      1260   107.00191     -933.80883     -2416.3054      4341.2338    
      1270   117.00779     -934.09623     -3101.0896      4343.8783    
      1280   87.347634     -933.29412     -2411.608       4340.8939    
      1290   88.33356      -933.34085     -790.85846      4333.4599    
      1300   99.769583     -933.66518      1228.3579      4324.5367    
      1310   97.261881     -933.59272      2862.5019      4317.7915    
      1320   106.03415     -933.84005      3299.8038      4316.1663    
      1330   104.27889     -933.80815      2379.3542      4320.5085    
      1340   105.74144     -933.86769      402.28841      4329.2205    
      1350   126.15713     -934.4514      -1854.4426      4338.7625    
      1360   107.02841     -933.94307     -3215.0277      4345.065     
      1370   94.769222     -933.63265     -3296.1908      4345.5414    
      1380   121.88713     -934.4331      -2199.0077      4339.9479    
      1390   104.59907     -934.00776     -21.435522      4330.319     
      1400   76.122678     -933.24395      2287.939       4320.5924    
      1410   106.12035     -934.09631      3471.7725      4314.89      
      1420   102.75432     -934.03746      3312.7482      4315.4355    
      1430   72.382794     -933.22749      1871.6586      4322.0122    
      1440   93.316544     -933.82757     -520.20963      4332.0489    
      1450   108.17331     -934.24399     -2667.1417      4341.2835    
      1460   91.678952     -933.78979     -3580.8775      4345.7807    
      1470   98.880646     -934.00511     -3092.8046      4343.7481    
      1480   105.77867     -934.21879     -1321.0938      4336.0338    
      1490   96.178755     -933.96482      1066.7736      4325.8522    
      1500   102.86606     -934.15255      2945.9745      4317.5025    
      1510   98.090493     -934.02711      3661.663       4314.4189    
      1520   79.417055     -933.52423      2941.6528      4317.9503    
      1530   101.0111      -934.13759      840.30658      4326.8407    
      1540   125.67231     -934.82512     -1659.5228      4337.385     
      1550   103.25571     -934.2063      -3363.4879      4345.067     
      1560   85.9225       -933.73708     -3764.6614      4346.6632    
      1570   94.081053     -933.98581     -2676.6944      4341.36      
      1580   91.319553     -933.92626     -343.96942      4331.133     
      1590   82.064732     -933.66485      2189.6532      4320.1941    
      1600   89.336482     -933.84913      3784.176       4313.1131    
      1610   90.604863     -933.87215      3912.4063      4312.8218    
      1620   83.292659     -933.66545      2450.5614      4319.6195    
      1630   95.625714     -933.99194     -151.66086      4330.9465    
      1640   111.11644     -934.38014     -2686.4716      4342.1683    
      1650   111.05519     -934.33479     -4069.8487      4348.6326    
      1660   111.15401     -934.31734     -3862.2276      4347.6864    
      1670   109.17055     -934.26131     -2097.6303      4339.6392    
      1680   97.219357     -933.924        564.03524      4327.6893    
      1690   89.854276     -933.69645      3009.5371      4316.6599    
      1700   81.643098     -933.44001      4337.0601      4310.9978    
      1710   81.284912     -933.41269      3942.9851      4313.1282    
      1720   108.19207     -934.14289      1823.9011      4322.4115    
      1730   114.14326     -934.27205     -1009.5035      4335.1595    
      1740   100.4572      -933.84622     -3453.2214      4346.2454    
      1750   118.68555     -934.3155      -4719.9729      4351.093     
      1760   114.9073      -934.20321     -4010.0339      4347.3287    
      1770   72.890467     -933.04418     -1425.6851      4336.2184    
      1780   87.97087      -933.44786      1699.6179      4322.4015    
      1790   108.45707     -933.97122      4246.1897      4311.579     
      1800   81.735977     -933.19361      5254.5911      4308.3731    
      1810   107.51241     -933.9012       3854.4276      4314.5778    
      1820   141.1296      -934.82344      697.7387       4327.8233    
      1830   102.45307     -933.72884     -2635.4611      4342.551     
      1840   94.546238     -933.48274     -5014.5398      4352.6108    
      1850   116.43499     -934.08525     -5367.5729      4353.5512    
      1860   98.767598     -933.61947     -3296.5186      4344.6776    
      1870   97.30654      -933.59642      159.36119      4329.7155    
      1880   105.71887     -933.81588      3585.4644      4314.9665    
      1890   95.799834     -933.51898      5634.8673      4306.631     
      1900   113.90948     -934.03298      5234.5579      4308.3612    
      1910   113.40898     -934.059        2608.2445      4319.5486    
      1920   91.538687     -933.47487     -1116.9533      4335.5956    
      1930   110.43487     -933.99357     -4493.8574      4349.7553    
      1940   105.79682     -933.87083     -5896.9975      4355.8217    
      1950   83.774347     -933.29877     -4777.8121      4351.1107    
      1960   106.53365     -933.98439     -1783.8232      4337.6029    
      1970   96.905318     -933.74754      2132.7664      4320.848     
      1980   76.815293     -933.1847       5305.2286      4307.941     
      1990   119.51794     -934.38921      6090.8737      4304.4975    
      2000   121.42637     -934.52106      4357.0226      4311.9902    
      2010   87.528393     -933.66346      841.8587       4327.4111    
      2020   104.18099     -934.17369     -3173.9218      4344.4518    
      2030   107.96044     -934.31909     -5857.9425      4355.8043    
      2040   92.319379     -933.94616     -6107.581       4356.4567    
      2050   95.15973      -934.10995     -3851.2223      4345.9074    
      2060   79.467668     -933.73012      199.77347      4328.3852    
      2070   73.334749     -933.55166      4281.3557      4311.2903    
      2080   95.479351     -934.14157      6547.8378      4301.9178    
      2090   92.594948     -934.07106      6122.2414      4304.2813    
      2100   97.77546      -934.25079      3015.5706      4317.6072    
      2110   115.21283     -934.74352     -1456.7915      4336.393     
      2120   89.423232     -933.99552     -5174.6603      4352.5985    
      2130   78.07664      -933.65358     -6750.3415      4359.3353    
      2140   99.083952     -934.25037     -5576.1852      4353.6788    
      2150   93.360934     -934.11472     -1892.4207      4337.9211    
      2160   92.053585     -934.0598       2637.0767      4318.879     
      2170   102.46569     -934.29404      5962.4391      4304.7287    
      2180   86.18223      -933.8098       6766.9722      4301.3375    
      2190   84.792814     -933.78222      4647.645       4310.0237    
      2200   98.292938     -934.15718      597.36234      4327.0041    
      2210   86.366002     -933.77793     -3483.9459      4345.0321    
      2220   94.530399     -933.93784     -6075.2379      4356.6266    
      2230   120.28014     -934.6131      -6188.6987      4357.0312    
      2240   98.289091     -934.00402     -3605.7842      4346.1851    
      2250   81.466765     -933.53102      425.60217      4328.9539    
      2260   113.6174      -934.37392      4087.8574      4312.7227    
      2270   113.33025     -934.31129      6124.8409      4304.0596    
      2280   78.596249     -933.33785      5645.3349      4306.4267    
      2290   87.638544     -933.60287      2635.8362      4318.7966    
      2300   109.80974     -934.19762     -1389.1896      4335.7689    
      2310   95.890165     -933.75838     -4583.274       4350.0771    
      2320   93.766241     -933.65898     -5900.1361      4355.8634    
      2330   104.95583     -933.96317     -4813.4262      4350.8319    
      2340   95.955181     -933.71802     -1621.8546      4337.2098    
      2350   98.673091     -933.77006      2225.0624      4320.9621    
      2360   115.833       -934.19937      5045.7381      4309.0316    
      2370   106.39989     -933.91433      5726.2721      4306.3193    
      2380   94.612476     -933.60146      3942.7293      4313.8185    
      2390   101.99908     -933.8185       542.4024       4328.2165    
      2400   107.47034     -933.95082     -2925.0732      4343.3565    
      2410   113.99879     -934.10473     -5130.865       4352.9324    
      2420   112.02153     -934.05449     -5199.9623      4353.0205    
      2430   92.892717     -933.55564     -3057.6692      4343.7259    
      2440   97.292537     -933.6973       261.20256      4329.1647    
      2450   106.34171     -933.93998      3403.9472      4315.4647    
      2460   85.413059     -933.34492      5168.655       4308.2011    
      2470   91.093247     -933.50999      4653.8251      4310.2637    
      2480   116.25877     -934.22965      2174.6389      4320.5284    
      2490   97.584631     -933.71848     -953.59341      4334.4754    
      2500   91.367559     -933.53109     -3629.7679      4346.3846    
      2510   122.40104     -934.38305     -4875.5721      4351.4358    
      2520   106.99813     -933.97779     -3938.2339      4347.5938    
      2530   82.403965     -933.32531     -1359.8091      4336.7932    
      2540   111.03441     -934.13265      1557.6529      4323.8603    
      2550   115.1741      -934.2529       3825.1644      4314.1144    
      2560   92.956872     -933.65708      4500.0822      4311.4536    
      2570   108.53215     -934.13713      3143.9585      4316.8144    
      2580   109.75009     -934.2335       558.09117      4327.6285    
      2590   85.815523     -933.61525     -2099.787       4339.1726    
      2600   89.033557     -933.73823     -3866.044       4346.629     
      2610   91.290968     -933.84714     -3937.9778      4346.9359    
      2620   86.991553     -933.78026     -2344.1569      4340.1708    
      2630   104.09593     -934.30064      112.84838      4329.4111    
      2640   100.17474     -934.22264      2529.6139      4319.2145    
      2650   85.547267     -933.83573      3835.5289      4313.8327    
      2660   96.955476     -934.17976      3385.5967      4315.3864    
      2670   94.128701     -934.13216      1580.4876      4322.9151    
      2680   87.249125     -933.95606     -795.63989      4333.0625    
      2690   95.836065     -934.19298     -2772.9769      4341.5114    
      2700   84.860628     -933.88383     -3394.4545      4344.7823    
      2710   90.296699     -934.03632     -2609.0011      4341.8646    
      2720   122.82885     -934.94268     -931.3016       4334.3293    
      2730   107.01308     -934.50509      1132.5291      4325.3752    
      2740   78.023816     -933.69548      2672.1192      4318.7127    
      2750   87.558399     -933.95504      2952.725       4316.9714    
      2760   83.013177     -933.8235       2100.76        4320.5463    
      2770   84.629375     -933.85774      450.5202       4327.7803    
      2780   109.16014     -934.51404     -1388.2775      4335.6294    
      2790   97.09366      -934.14972     -2516.1075      4340.8154    
      2800   84.774626     -933.7881      -2615.7485      4341.3472    
      2810   101.00619     -934.22322     -1736.2759      4337.1513    
      2820   85.647315     -933.77669     -44.128057      4329.9834    
      2830   73.378376     -933.40955      1648.0703      4322.9368    
      2840   107.49559     -934.32186      2514.5554      4318.9932    
      2850   111.17306     -934.39197      2450.8888      4319.6548    
      2860   89.723565     -933.7808       1414.4309      4324.6835    
      2870   102.95937     -934.13315     -377.70685      4332.0977    
      2880   110.66932     -934.32585     -1965.7605      4338.6827    
      2890   95.755922     -933.89692     -2573.2339      4341.6205    
      2900   101.01309     -934.03753     -2139.8025      4339.8586    
      2910   112.03512     -934.34242     -888.16138      4334.2843    
      2920   103.54966     -934.10578      695.15612      4327.2493    
      2930   93.370153     -933.81963      1922.0861      4321.614     
      2940   81.827584     -933.49367      2352.1397      4319.5418    
      2950   80.732529     -933.45663      1797.924       4321.7143    
      2960   94.258476     -933.81928      505.63298      4327.0616    
      2970   86.05328      -933.56838     -822.43851      4333.2504    
      2980   83.889042     -933.47972     -1726.0202      4337.8663    
      2990   125.11201     -934.59098     -2005.6443      4339.2743    
      3000   131.74783     -934.752       -1403.561       4337.0596    
      3010   95.61364      -933.74399     -231.72475      4332.3692    
      3020   107.74227     -934.07856      790.04469      4327.312     
      3030   117.76323     -934.35751      1499.6283      4323.7746    
      3040   79.822584     -933.30834      1740.505       4323.0222    
      3050   87.399049     -933.52131      1104.66        4325.3744    
      3060   111.55497     -934.18882      15.668572      4329.6773    
      3070   93.987567     -933.69512     -880.10202      4333.9875    
      3080   102.28722     -933.92034     -1473.8913      4336.64      
      3090   117.66748     -934.34633     -1508.2121      4336.5914    
      3100   89.340734     -933.56457     -840.12838      4333.8468    
      3110   82.913704     -933.38716      108.20695      4329.6223    
      3120   103.07007     -933.93953      1011.3388      4325.6603    
      3130   103.0351      -933.92791      1580.9861      4323.5947    
      3140   105.91983     -934.00253      1412.7907      4324.3839    
      3150   103.14689     -933.9237       650.34236      4327.7062    
      3160   95.152906     -933.69855     -363.12602      4332.1703    
      3170   112.02511     -934.16224     -1333.4727      4335.9112    
      3180   107.0561      -934.02378     -1644.3297      4337.2257    
      3190   86.410236     -933.4543      -1146.382       4335.5843    
      3200   105.28759     -933.98123     -309.37163      4331.872     
      3210   114.11302     -934.22845      655.55912      4327.6549    
      3220   96.940208     -933.75763      1410.3852      4324.6885    
      3230   108.56652     -934.09291      1402.3917      4324.2634    
      3240   109.90662     -934.15347      790.73716      4326.3662    
      3250   77.673759     -933.28202      21.415697      4329.9105    
      3260   83.83033      -933.46864     -808.83393      4333.4525    
      3270   108.51798     -934.16976     -1303.7767      4335.5041    
      3280   99.873697     -933.95044     -1102.4372      4335.216     
      3290   102.27295     -934.04172     -538.10254      4332.9272    
      3300   114.9088      -934.42585      116.22595      4329.671     
      3310   91.784454     -933.82012      819.18231      4326.6831    
      3320   83.175301     -933.609        1134.3779      4325.1949    
      3330   103.2434      -934.19515      889.25967      4325.7482    
      3340   89.96988      -933.8549       442.18393      4327.9365    
      3350   82.245414     -933.65931     -176.23319      4330.9125    
      3360   110.87764     -934.47145     -843.45159      4333.5283    
      3370   102.3291      -934.25502     -1023.6217      4334.6331    
      3380   83.834995     -933.7591      -763.76181      4333.8879    
      3390   111.97318     -934.55805     -359.4376       4331.7395    
      3400   111.79004     -934.57692      280.79206      4328.9835    
      3410   80.939575     -933.74147      817.8211       4326.7662    
      3420   88.185142     -933.95782      800.09047      4326.0029    
      3430   86.739866     -933.92772      546.96504      4326.7102    
      3440   68.859226     -933.43154      248.81107      4328.4383    
      3450   95.691302     -934.16836     -254.55965      4330.5864    
      3460   106.94125     -934.46332     -572.45317      4332.2824    
      3470   88.066702     -933.9224      -547.24648      4332.9609    
      3480   106.11253     -934.40597     -489.49496      4332.6141    
      3490   114.43603     -934.61719     -272.61992      4331.3841    
      3500   86.590563     -933.82856      129.54206      4329.6915    
      3510   86.69097      -933.81523      339.86533      4328.2206    
      3520   89.422186     -933.86532      455.17976      4327.3846    
      3530   82.538519     -933.64168      551.60065      4327.4119    
      3540   109.25195     -934.342        346.46655      4328.4231    
      3550   110.51837     -934.3282       33.867274      4330.0685    
      3560   79.849624     -933.4381      -221.38133      4331.7905    
      3570   105.88124     -934.12384     -604.44638      4333.0681    
      3580   126.83372     -934.66164     -743.98134      4333.2509    
      3590   85.879353     -933.49611     -386.42626      4332.131     
      3600   90.663717     -933.60898     -51.249016      4330.2868    
      3610   117.22013     -934.32123      259.09547      4328.3536    
      3620   80.085675     -933.26915      762.52787      4326.9604    
      3630   76.96244      -933.16541      879.97022      4326.9406    
      3640   128.43862     -934.57006      427.90858      4328.4762    
      3650   118.70072     -934.28216     -40.671865      4330.8203    
      3660   90.653199     -933.49877     -486.39607      4333.0919    
      3670   110.48568     -934.04705     -925.763        4334.4437    
      3680   111.60582     -934.07929     -912.95389      4334.1349    
      3690   94.331055     -933.60522     -457.50622      4332.1909    
      3700   95.806043     -933.65018      116.43532      4329.4169    
      3710   94.788056     -933.62167      681.66541      4326.8768    
      3720   94.275432     -933.60441      1030.0721      4325.5934    
      3730   100.79294     -933.78168      969.7992       4326.1809    
      3740   102.50361     -933.82519      535.27921      4328.532     
      3750   120.40037     -934.32169     -205.27936      4331.8365    
      3760   124.13143     -934.4354      -884.5207       4334.7671    
      3770   104.44269     -933.90975     -1193.3221      4336.0968    
      3780   97.388985     -933.73736     -1097.1274      4335.2485    
      3790   93.942637     -933.66373     -577.01215      4332.4126    
      3800   85.362923     -933.43959      270.95323      4328.5624    
      3810   102.92607     -933.93612      1034.0912      4325.2208    
      3820   108.44671     -934.10013      1437.3624      4323.773     
      3830   90.321375     -933.60988      1282.7482      4324.9366    
      3840   95.605839     -933.76788      485.60077      4328.4017    
      3850   104.33357     -934.01825     -581.00173      4332.7368    
      3860   96.263225     -933.80018     -1394.4199      4336.0235    
      3870   96.594985     -933.81627     -1595.897       4336.7844    
      3880   95.533601     -933.79372     -1023.1142      4334.6725    
      3890   103.03234     -934.00686     -2.865728       4330.7195    
      3900   123.60295     -934.58589      933.98258      4326.7609    
      3910   117.41051     -934.43553      1462.7931      4324.5041    
      3920   96.759948     -933.89344      1327.4085      4324.8912    
      3930   93.062932     -933.82365      537.53064      4327.6627    
      3940   84.070392     -933.60143     -410.60205      4331.4236    
      3950   82.930227     -933.5887      -1111.5228      4334.4569    
      3960   98.692338     -934.04392     -1349.0766      4335.4748    
      3970   99.846684     -934.09637     -977.20889      4334.0582    
      3980   97.695375     -934.05921     -197.89362      4330.8773    
      3990   97.371376     -934.0741       621.88619      4327.3408    
      4000   86.021105     -933.78083      1183.8887      4324.9411    
      4010   89.257256     -933.89094      1214.7824      4324.6806    
      4020   101.23587     -934.24702      740.4996       4326.6202    
      4030   95.824156     -934.12312      33.806143      4329.9196    
      4040   96.222747     -934.16154     -709.75543      4333.2826    
      4050   104.67549     -934.42996     -1221.1003      4335.3529    
      4060   95.332253     -934.21184     -1210.0277      4335.2157    
      4070   83.348807     -933.91862     -683.43089      4332.8897    
      4080   89.330031     -934.11951      115.803        4329.3289    
      4090   98.002872     -934.39431      868.99463      4325.9864    
      4100   91.018722     -934.2334       1269.1066      4324.2239    
      4110   81.668336     -934.00083      1136.4311      4324.7596    
      4120   89.41681      -934.2375       507.66968      4327.3506    
      4130   93.184005     -934.35881     -310.55983      4330.8724    
      4140   81.845836     -934.05335     -982.58962      4333.8438    
      4150   83.796061     -934.10993     -1296.4775      4335.0294    
      4160   93.165763     -934.36754     -1053.5561      4333.8687    
      4170   82.894553     -934.07373     -272.21417      4330.8202    
      4180   82.333183     -934.04175      584.17701      4327.2759    
      4190   96.904622     -934.41889      1131.0273      4324.7811    
      4200   91.336762     -934.23013      1264.0428      4324.3466    
      4210   82.979719     -933.9635       874.64503      4326.2038    
      4220   100.39321     -934.40446      32.885979      4329.635     
      4230   103.82889     -934.44805     -772.76959      4333.1471    
      4240   84.567583     -933.86838     -1167.3618      4335.285     
      4250   94.050176     -934.09215     -1147.5883      4335.2965    
      4260   118.02431     -934.71578     -715.61886      4333.2173    
      4270   103.91516     -934.29221      71.112291      4329.856     
      4280   77.495149     -933.53742      815.20941      4326.6254    
      4290   81.049378     -933.61479      1110.9776      4324.8519    
      4300   92.139149     -933.89635      957.14382      4325.0927    
      4310   89.454983     -933.79488      525.03001      4327.0921    
      4320   89.660279     -933.77445     -71.867921      4330.0612    
      4330   102.88287     -934.11359     -682.26045      4332.9045    
      4340   105.40436     -934.1576      -1016.8886      4334.5203    
      4350   92.14536      -933.76985     -897.82876      4334.3046    
      4360   97.943562     -933.91346     -449.26181      4332.4546    
      4370   114.96641     -934.36778      172.52808      4329.789     
      4380   106.77684     -934.12707      778.53157      4327.4495    
      4390   98.614284     -933.8931       992.19984      4326.5099    
      4400   107.80136     -934.14374      680.93782      4327.351     
      4410   104.46672     -934.04929      122.28025      4329.4422    
      4420   93.735846     -933.75071     -424.28574      4331.779     
      4430   90.605485     -933.66069     -792.46523      4333.3578    
      4440   90.890073     -933.66099     -820.10868      4333.5092    
      4450   102.38743     -933.96931     -492.74706      4332.178     
      4460   106.79495     -934.07957      72.193724      4329.9609    
      4470   98.220224     -933.83098      565.51773      4327.8683    
      4480   96.577772     -933.77556      734.91395      4326.7841    
      4490   92.924745     -933.66229      636.24391      4327.041     
      4500   91.132566     -933.59726      348.67462      4328.471     
      4510   105.43184     -933.97439     -73.678077      4330.5444    
      4520   106.42055     -933.97948     -420.0863       4332.5078    
      4530   106.8291      -933.9717      -617.67763      4333.7183    
      4540   122.37823     -934.38971     -659.97095      4333.7986    
      4550   109.2198      -934.02013     -438.06146      4332.6869    
      4560   97.599503     -933.69936     -75.320617      4330.7739    
      4570   109.19389     -934.02537      321.24846      4328.7218    
      4580   96.826096     -933.68727      685.65594      4327.2708    
      4590   90.863698     -933.52649      694.5524       4327.0485    
      4600   101.86762     -933.83561      382.79182      4328.0837    
      4610   89.226858     -933.48532      42.053396      4329.8497    
      4620   93.308303     -933.59546     -343.68316      4331.7006    
      4630   118.10518     -934.27889     -636.65345      4332.9313    
      4640   101.71203     -933.82264     -552.57835      4333.0407    
      4650   98.182895     -933.72736     -313.68522      4332.1368    
      4660   117.8378      -934.27906     -21.705676      4330.65      
      4670   106.80788     -933.98602      335.67911      4329.1364    
      4680   99.204281     -933.7942       460.569        4328.2124    
      4690   94.871004     -933.69615      387.09994      4328.1234    
      4700   80.679906     -933.31931      289.55146      4328.7689    
      4710   105.56131     -934.02588      22.270778      4329.937     
      4720   117.96641     -934.39437     -214.99839      4331.1661    
      4730   93.095394     -933.73278     -287.56364      4332.0356    
      4740   110.18893     -934.24046     -439.51537      4332.3551    
      4750   112.87416     -934.3624      -406.95338      4331.8847    
      4760   72.052789     -933.26758     -73.193549      4330.7055    
      4770   94.535949     -933.92034      85.729553      4329.3496    
      4780   118.16066     -934.61409      242.92291      4328.1518    
      4790   75.128376     -933.45206      585.50208      4327.4478    
      4800   78.883584     -933.57444      565.01226      4327.7819    
      4810   115.78818     -934.617        194.64995      4329.1283    
      4820   98.71789      -934.16271     -116.55443      4330.8754    
      4830   92.229502     -933.99961     -511.99856      4332.4047    
      4840   105.8955      -934.39636     -814.9025       4332.9968    
      4850   82.719071     -933.76743     -588.08283      4332.1525    
      4860   73.678548     -933.52166     -77.775729      4330.2416    
      4870   101.3862      -934.28822      388.7935       4328.1632    
      4880   105.3084      -934.39013      788.02276      4326.8006    
      4890   97.511131     -934.16942      825.84474      4326.8583    
      4900   101.74483     -934.28409      394.91919      4328.3997    
      4910   94.205855     -934.07037     -163.6925       4330.6879    
      4920   87.279136     -933.87031     -653.90905      4332.7047    
      4930   95.265688     -934.07932     -904.3447       4333.5458    
      4940   94.088384     -934.02857     -668.38073      4332.7735    
      4950   98.477221     -934.12887     -169.72192      4330.7789    
      4960   102.07948     -934.20258      329.97365      4328.45      
      4970   80.817486     -933.5833       770.27805      4326.7225    
      4980   81.150077     -933.56008      843.51912      4326.3758    
      4990   112.70123     -934.38666      478.63088      4327.5454    
      5000   104.71225     -934.1074       110.22144      4329.6401    
      5010   86.212044     -933.54802     -244.50292      4331.9751    
      5020   113.22711     -934.25136     -734.19729      4333.8491    
      5030   119.91676     -934.39036     -912.10064      4334.4139    
      5040   94.340567     -933.65182     -631.16369      4333.3441    
      5050   98.179804     -933.73881     -227.14634      4331.091     
      5060   104.32943     -933.89013      295.25202      4328.412     
      5070   89.72776      -933.46808      866.07787      4326.2807    
      5080   95.34951      -933.6096       1052.1242      4325.7003    
      5090   107.16811     -933.92364      756.8836       4327.0243    
      5100   101.57198     -933.75783      179.94345      4329.7548    
      5110   104.73395     -933.83838     -516.36042      4332.8426    
      5120   112.31051     -934.0447      -1006.6804      4335.03      
      5130   109.31114     -933.96388     -1052.661       4335.4176    
      5140   114.57828     -934.12029     -752.02426      4333.8768    
      5150   115.67727     -934.1697      -158.60889      4330.9494    
      5160   92.889151     -933.55693      594.80161      4327.7254    
      5170   83.292185     -933.30281      1058.5546      4325.5441    
      5180   94.556436     -933.62264      1040.2085      4325.2593    
      5190   95.959881     -933.66547      683.74503      4326.8864    
      5200   95.086737     -933.64238      81.163605      4329.7911    
      5210   105.88991     -933.94127     -583.12678      4332.8818    
      5220   112.96542     -934.13887     -990.89226      4334.9587    
      5230   114.1851      -934.18259     -1034.7178      4335.2502    
      5240   107.86552     -934.02603     -709.71724      4333.6507    
      5250   97.83652      -933.76867     -75.127208      4330.7452    
      5260   100.25642     -933.85571      604.65158      4327.674     
      5270   99.329334     -933.84956      1068.0863      4325.677     
      5280   94.793534     -933.74209      1102.5802      4325.6068    
      5290   108.25221     -934.13647      633.93319      4327.5395    
      5300   106.92441     -934.12517     -55.782292      4330.6699    
      5310   89.375277     -933.66053     -726.77755      4333.7514    
      5320   104.35154     -934.09772     -1266.7458      4335.5224    
      5330   104.17819     -934.11982     -1253.0135      4335.0142    
      5340   74.859285     -933.32711     -591.0764       4332.2387    
      5350   89.898597     -933.75698      263.45186      4328.3385    
      5360   108.1652      -934.27304      1077.4579      4324.8822    
      5370   84.29497      -933.6172       1600.3201      4323.3748    
      5380   91.25377      -933.81572      1344.6973      4324.74      
      5390   116.44181     -934.5194       436.77815      4328.5651    
      5400   109.12249     -934.32403     -619.5831       4333.2622    
      5410   99.64554      -934.07269     -1472.6865      4336.8967    
      5420   98.41172      -934.05359     -1758.1591      4337.8893    
      5430   96.431349     -934.01679     -1300.4341      4335.6866    
      5440   103.89022     -934.2456      -310.97055      4331.0754    
      5450   90.787842     -933.90266      915.2419       4325.8577    
      5460   80.277568     -933.62493      1780.6047      4322.2417    
      5470   99.221295     -934.16688      1798.4823      4321.794     
      5480   90.63785      -933.94772      1169.9367      4324.6369    
      5490   80.122148     -933.66968      98.052903      4329.6722    
      5500   109.24406     -934.48828     -1169.7346      4334.945     
      5510   104.74396     -934.37731     -1920.4815      4338.1778    
      5520   74.504202     -933.55349     -1840.1366      4337.9565    
      5530   87.887911     -933.93885     -1113.4823      4334.3418    
      5540   97.90817      -934.22494      192.35253      4328.6644    
      5550   85.967843     -933.89262      1592.5026      4323.2927    
      5560   102.09432     -934.33662      2232.104       4320.7238    
      5570   114.53866     -934.68351      1887.7422      4322.1708    
      5580   96.952683     -934.20351      784.00832      4327.0925    
      5590   92.331439     -934.07999     -779.47091      4333.5105    
      5600   95.369669     -934.16192     -2079.5368      4338.6068    
      5610   80.095343     -933.73286     -2395.5517      4340.0035    
      5620   79.559364     -933.71155     -1684.2358      4337.0382    
      5630   100.56284     -934.2775      -263.37817      4330.9504    
      5640   106.09701     -934.4007       1339.742       4324.3135    
      5650   99.228266     -934.17866      2345.2941      4320.0162    
      5660   90.807548     -933.91921      2331.4719      4319.9141    
      5670   80.141895     -933.59928      1355.3601      4324.0585    
      5680   87.704197     -933.77653     -258.61222      4330.7346    
      5690   102.20994     -934.1293      -1738.6524      4337.0615    
      5700   92.173143     -933.79929     -2326.4392      4340.3474    
      5710   101.16395     -934.00741     -2032.1572      4339.4073    
      5720   121.40116     -934.53015     -1003.99        4334.7132    
      5730   98.269405     -933.85628      576.33701      4328.1494    
      5740   91.697795     -933.64704      1879.6046      4322.54      
      5750   116.84061     -934.31896      2308.472       4320.2534    
      5760   99.644325     -933.82469      1932.4241      4322.1659    
      5770   90.860473     -933.57162      703.72422      4327.6244    
      5780   114.22304     -934.20525     -970.47572      4334.4359    
      5790   98.908207     -933.76203     -2126.8842      4339.6178    
      5800   100.60998     -933.79851     -2455.0399      4340.9782    
      5810   119.76887     -934.32876     -1851.6939      4337.8445    
      5820   81.783788     -933.27573     -302.51272      4331.3169    
      5830   73.145159     -933.027        1358.1683      4324.1469    
      5840   114.39008     -934.15089      2395.9917      4319.3381    
      5850   97.421227     -933.6593       2667.4451      4318.8624    
      5860   91.190592     -933.47687      1756.734       4323.2175    
      5870   129.19775     -934.51859     -92.645758      4330.81      
      5880   110.14235     -933.97516     -1760.3897      4338.3975    
      5890   90.596318     -933.42402     -2704.6192      4342.8862    
      5900   123.164       -934.32895     -2694.0445      4342.4515    
      5910   122.7977      -934.33561     -1459.8889      4337.0979    
      5920   101.44807     -933.76638      436.58532      4329.0195    
      5930   101.18517     -933.77787      2058.7908      4321.6204    
      5940   94.550916     -933.61222      2847.6898      4317.8767    
      5950   92.308752     -933.57383      2463.5624      4319.256     
      5960   96.478318     -933.71656      1030.5966      4325.1319    
      5970   87.011733     -933.47102     -773.36568      4332.9948    
      5980   93.330811     -933.65295     -2228.0766      4339.5752    
      5990   105.22882     -933.99147     -2706.7138      4342.1846    
      6000   104.81191     -933.99784     -2049.6358      4339.8766    
      6010   117.65393     -934.38253     -694.18261      4333.7635    
      6020   115.28566     -934.35433      918.59626      4326.3099    
      6030   84.558645     -933.53576      2276.982       4320.4678    
      6040   84.219024     -933.55495      2681.9105      4318.6889    
      6050   108.32903     -934.26422      1914.0016      4321.7468    
      6060   98.44144      -934.03464      429.48379      4328.3517    
      6070   92.374202     -933.90109     -1277.5551      4335.8356    
      6080   108.33053     -934.37765     -2558.51        4341.0776    
      6090   101.60253     -934.23446     -2733.7366      4341.7174    
      6100   79.686313     -933.66726     -1721.4966      4337.372     
      6110   83.938495     -933.81299     -21.751933      4329.8273    
      6120   99.429981     -934.25767      1736.4681      4322.1727    
      6130   97.944714     -934.22634      2860.1342      4317.6056    
      6140   87.8861       -933.96018      2778.7351      4318.171     
      6150   89.539432     -934.01946      1434.5576      4323.772     
      6160   97.964781     -934.25713     -562.04838      4332.0565    
      6170   93.686125     -934.13058     -2260.8859      4339.447     
      6180   87.399514     -933.94618     -2963.3171      4342.8112    
      6190   95.73428      -934.17285     -2474.0602      4340.7827    
      6200   99.745603     -934.28072     -966.8302       4334.2082    
      6210   90.756509     -934.02031      986.96504      4325.8181    
      6220   92.463232     -934.04859      2507.7252      4319.1392    
      6230   97.607131     -934.17373      2972.5148      4316.9385    
      6240   88.780655     -933.91925      2257.4022      4320.1144    
      6250   89.487329     -933.92997      593.51354      4327.4303    
      6260   101.823       -934.2528      -1352.8275      4335.9197    
      6270   101.86847     -934.23003     -2722.6883      4342.0521    
      6280   93.862612     -933.99286     -2981.5843      4343.2718    
      6290   96.694073     -934.06632     -2067.3585      4339.0369    
      6300   97.553249     -934.08386     -258.97669      4330.997     
      6310   88.559527     -933.81754      1741.1664      4322.4371    
      6320   96.108407     -934.00497      2989.2114      4316.9592    
      6330   101.98279     -934.15225      2997.0538      4316.845     
      6340   80.377779     -933.54492      1835.0201      4322.178     
      6350   83.968763     -933.63153     -157.71117      4330.8967    
      6360   111.82811     -934.37342     -2138.9978      4339.4243    
      6370   106.36976     -934.18943     -3167.0555      4344.1537    
      6380   102.42188     -934.06524     -2933.6591      4343.1241    
      6390   111.90742     -934.32529     -1499.229       4336.7198    
      6400   91.592239     -933.75454      665.50507      4327.5603    
      6410   88.734181     -933.65797      2491.1643      4319.5365    
      6420   107.87695     -934.1703       3249.6925      4315.96      
      6430   85.265344     -933.53226      2787.4829      4318.2619    
      6440   84.724067     -933.51059      1063.2687      4325.6204    
      6450   118.24059     -934.4178      -1168.0389      4334.9798    
      6460   105.26827     -934.02691     -2739.799       4342.3436    
      6470   96.616099     -933.76813     -3236.2313      4344.756     
      6480   117.33933     -934.33737     -2518.5173      4341.2449    
      6490   102.55824     -933.92666     -640.59291      4333.14      
      6500   90.508442     -933.5849       1503.1688      4323.8251    
      6510   95.038676     -933.69418      2995.6522      4317.1788    
      6520   84.768189     -933.39367      3321.0283      4315.9255    
      6530   105.13807     -933.95041      2197.8792      4320.6562    
      6540   119.42142     -934.33398      203.64847      4329.4251    
      6550   92.076646     -933.55663     -1775.2739      4338.6728    
      6560   108.64494     -933.99695     -3244.4246      4344.7198    
      6570   121.62365     -934.34853     -3415.1138      4344.8728    
      6580   82.122203     -933.25869     -1977.6727      4338.8253    
      6590   92.13024      -933.53709      214.36317      4329.1315    
      6600   119.74561     -934.28617      2356.2814      4319.7955    
      6610   94.246985     -933.56063      3727.7656      4314.7232    
      6620   98.356211     -933.67244      3410.5702      4316.3289    
      6630   122.00102     -934.33378      1533.7493      4324.091     
      6640   104.94821     -933.86164     -904.20768      4334.7205    
      6650   96.804852     -933.62941     -3037.416       4343.7752    
      6660   102.88485     -933.79629     -3959.4275      4347.3326    
      6670   103.99264     -933.84289     -3135.7239      4343.6877    
      6680   108.52931     -933.99449     -931.41903      4334.3223    
      6690   100.2814      -933.78267      1692.1794      4323.2511    
      6700   96.204074     -933.67868      3536.9929      4315.2061    
      6710   99.924954     -933.80433      3830.9665      4313.5029    
      6720   82.927359     -933.36653      2606.6869      4318.7197    
      6730   90.305099     -933.59883      306.59448      4328.6853    
      6740   112.84425     -934.23992     -2116.7162      4339.274     
      6750   101.52914     -933.94002     -3574.1481      4346.0834    
      6760   102.37135     -933.99092     -3584.882       4346.3869    
      6770   121.70295     -934.57746     -2188.5616      4340.1323    
      6780   108.92308     -934.27935      149.66654      4329.8964    
      6790   90.110552     -933.79511      2444.1794      4319.931     
      6800   88.693275     -933.78205      3708.006       4314.3685    
      6810   96.069813     -934.02017      3376.4333      4315.4699    
      6820   105.04324     -934.31115      1607.586       4322.6637    
      6830   90.247397     -933.93125     -732.63313      4332.8236    
      6840   74.308437     -933.49532     -2755.3394      4341.7044    
      6850   88.997716     -933.90335     -3723.9059      4345.5768    
      6860   87.984503     -933.88178     -3035.7032      4342.6847    
      6870   84.361917     -933.78579     -998.13513      4334.2785    
      6880   111.45822     -934.52663      1396.6297      4324.0531    
      6890   111.10851     -934.49677      3270.4949      4316.3722    
      6900   91.891153     -933.95515      3749.9541      4314.5812    
      6910   102.87764     -934.26631      2481.7098      4319.5121    
      6920   96.640759     -934.0959       239.42046      4328.9587    
      6930   82.722615     -933.69639     -2019.6515      4338.8929    
      6940   103.34084     -934.24611     -3532.6418      4345.1614    
      6950   100.18236     -934.14238     -3483.8288      4345.0171    
      6960   83.320095     -933.66866     -1899.0874      4338.5423    
      6970   106.36976     -934.29264      355.6219       4328.6029    
      6980   112.48        -934.42872      2481.2614      4319.3314    
      6990   84.6072       -933.62508      3633.0552      4314.5615    
      7000   89.030999     -933.73046      3113.2583      4316.3034    
      7010   92.060451     -933.79344      1339.613       4323.6711    
      7020   76.476391     -933.32687     -814.75379      4333.5153    
      7030   97.142795     -933.84924     -2685.9283      4341.8917    
      7040   124.62882     -934.54946     -3455.5419      4345.3868    
      7050   112.70787     -934.1786      -2698.3596      4342.6063    
      7060   102.42286     -933.87429     -934.95939      4334.9024    
      7070   105.82346     -933.9476       1119.2485      4325.5064    
      7080   94.489043     -933.60708      2820.5212      4318.1807    
      7090   93.698467     -933.56595      3347.3849      4315.9502    
      7100   107.80672     -933.949        2428.9131      4319.7419    
      7110   107.50748     -933.93634      593.07837      4327.9428    
      7120   101.47391     -933.75958     -1460.2126      4337.2406    
      7130   112.16474     -934.04439     -3029.365       4343.8751    
      7140   116.13515     -934.15633     -3349.3743      4344.9946    
      7150   101.36224     -933.76504     -2229.705       4340.0253    
      7160   89.79118      -933.45964     -192.89207      4331.0183    
      7170   90.417735     -933.47557      1960.8166      4321.7013    
      7180   101.42285     -933.77144      3306.7012      4315.9522    
      7190   106.69049     -933.91831      3224.9336      4316.1584    
      7200   93.45172      -933.56182      1828.8265      4322.1816    
      7210   88.563192     -933.42911     -286.78878      4331.5233    
      7220   113.18978     -934.10214     -2315.8058      4340.3461    
      7230   115.5836      -934.16149     -3282.4033      4344.9787    
      7240   98.383046     -933.69319     -2854.065       4343.6381    
      7250   119.18288     -934.2908      -1429.8764      4337.0767    
      7260   127.0022      -934.53582      595.24961      4327.9515    
      7270   85.90652      -933.41605      2518.7349      4319.9721    
      7280   90.733218     -933.56442      3217.7002      4316.5253    
      7290   114.69251     -934.25631      2532.5474      4318.872     
      7300   89.770593     -933.59415      1005.2955      4325.827     
      7310   87.323794     -933.54136     -1000.9893      4334.5902    
      7320   110.47864     -934.1903      -2697.5389      4341.5176    
      7330   93.577288     -933.73083     -3146.3649      4343.56      
      7340   86.245881     -933.54251     -2288.733       4339.8748    
      7350   103.29217     -934.02828     -515.35252      4332.0424    
      7360   98.988105     -933.90992      1571.4372      4323.3337    
      7370   97.600208     -933.86689      3017.0824      4317.4993    
      7380   104.7638      -934.06895      3168.2958      4317.1099    
      7390   103.4028      -934.04437      1949.4528      4322.4233    
      7400   111.58219     -934.28523     -196.06219      4331.2351    
      7410   103.70089     -934.07374     -2204.7254      4339.7021    
      7420   88.14401      -933.64615     -3200.4977      4344.1738    
      7430   102.2852      -934.05124     -2915.9507      4342.802     
      7440   101.27548     -934.0416      -1368.7853      4336.1484    
      7450   90.92894      -933.76331      779.73491      4327.0563    
      7460   110.03756     -934.2939       2488.8498      4319.397     
      7470   99.027782     -933.9927       3203.34        4316.2637    
      7480   74.226928     -933.31434      2601.2054      4318.9101    
      7490   94.695916     -933.8897       793.20685      4326.2173    
      7500   104.09753     -934.14261     -1263.1205      4334.9692    
      7510   91.356264     -933.77328     -2656.7619      4341.4467    
      7520   98.580273     -933.96158     -2958.6822      4343.0785    
      7530   98.004772     -933.93666     -2006.1841      4339.3351    
      7540   100.3253      -933.9875      -260.19834      4331.9666    
      7550   121.57747     -934.55059      1483.0361      4324.148     
      7560   109.08496     -934.17291      2662.1182      4319.0583    
      7570   88.117949     -933.56856      2722.1835      4318.7841    
      7580   99.667047     -933.86444      1534.1295      4323.3948    
      7590   101.58102     -933.87262     -210.82097      4330.7859    
      7600   90.622601     -933.50941     -1761.5366      4337.8073    
      7610   99.40441      -933.68605     -2631.3993      4341.6089    
      7620   110.39292     -933.9211      -2391.8622      4340.6243    
      7630   110.1104      -933.8535      -1091.354       4335.3178    
      7640   105.56975     -933.67662      650.48647      4328.0625    
      7650   107.99454     -933.69779      2074.4286      4322.0145    
      7660   113.65483     -933.81865      2614.0418      4319.7331    
      7670   111.0961      -933.72807      2022.4503      4322.1661    
      7680   107.17099     -933.61009      533.91028      4328.2372    
      7690   102.18988     -933.46178     -1155.9183      4335.2729    
      7700   100.40205     -933.40012     -2321.0306      4340.2104    
      7710   109.02429     -933.63343     -2449.5156      4340.9338    
      7720   111.40923     -933.70332     -1455.0343      4337.2294    
      7730   114.11141     -933.78693      96.100982      4330.901     
      7740   125.73182     -934.12526      1472.0779      4324.7568    
      7750   103.95017     -933.5463       2272.4125      4321.3115    
      7760   90.707543     -933.20596      2049.8283      4321.9656    
      7770   114.93891     -933.9122       867.77613      4326.2977    
      7780   103.6612      -933.63532     -481.63684      4332.2317    
      7790   92.066356     -933.34011     -1556.6885      4337.3005    
      7800   128.68222     -934.39184     -2088.2859      4339.5149    
      7810   118.29449     -934.16009     -1627.9789      4337.9625    
      7820   87.274903     -933.34776     -544.65419      4333.4609    
      7830   111.24327     -934.05573      517.33095      4327.9488    
      7840   102.6266      -933.85905      1522.3813      4323.431     
      7850   75.278565     -933.12639      2007.0749      4321.7012    
      7860   105.17814     -933.9801       1488.2942      4323.565     
      7870   114.51764     -934.26688      434.72705      4328.134     
      7880   90.125553     -933.61218     -701.74153      4333.5068    
      7890   97.106271     -933.82125     -1670.153       4337.579     
      7900   105.33695     -934.06502     -1935.2111      4338.6197    
      7910   107.73148     -934.15199     -1358.8948      4336.1564    
      7920   109.07442     -934.21488     -216.69356      4331.2411    
      7930   87.659584     -933.63962      1093.1766      4325.9742    
      7940   94.534165     -933.8419       1826.9762      4322.6828    
      7950   118.56228     -934.52641      1672.6861      4322.6768    
      7960   89.985385     -933.75509      971.79808      4325.7245    
      7970   75.98663      -933.37852     -144.81833      4330.5265    
      7980   103.93258     -934.15846     -1290.8176      4335.0451    
      7990   93.512139     -933.86926     -1696.1518      4337.2601    
      8000   91.546317     -933.81525     -1371.1827      4336.4008    
      8010   122.21212     -934.6692      -622.97842      4333.0324    
      8020   106.24607     -934.23334      478.0579       4328.5725    
      8030   85.885956     -933.67473      1344.3337      4324.9906    
      8040   102.53209     -934.14286      1446.6815      4323.8122    
      8050   95.393141     -933.95091      989.65416      4325.2627    
      8060   80.563877     -933.54177      227.16646      4328.5238    
      8070   94.736869     -933.93074     -629.14081      4332.1948    
      8080   94.309318     -933.90669     -1137.8898      4334.7435    
      8090   87.801018     -933.71106     -1155.2719      4335.2337    
      8100   103.73337     -934.13402     -771.85865      4333.6169    
      8110   109.39912     -934.26666     -21.847457      4330.6194    
      8120   105.20558     -934.12642      745.09469      4327.5976    
      8130   112.20038     -934.29928      1067.9586      4325.9094    
      8140   104.67289     -934.0727       957.73584      4326.1635    
      8150   93.15323      -933.73835      500.30396      4328.1648    
      8160   98.535901     -933.86944     -213.92349      4331.0664    
      8170   100.87878     -933.90935     -828.14153      4333.5872    
      8180   92.414384     -933.64592     -1046.2876      4334.6208    
      8190   93.404638     -933.64115     -878.58571      4333.7506    
      8200   98.960397     -933.75405     -329.27954      4331.2955    
      8210   98.829395     -933.7015       475.77877      4328.2745    
      8220   104.91462     -933.81733      1057.6607      4326.1189    
      8230   116.89233     -934.09644      1065.9587      4325.859     
      8240   108.30033     -933.81354      648.04149      4327.5376    
      8250   90.106925     -933.27562      22.084766      4330.4076    
      8260   101.85563     -933.57026     -648.11638      4333.3161    
      8270   118.16239     -933.98987     -998.23605      4335.0654    
      8280   118.20366     -933.96906     -901.40811      4335.0156    
      8290   119.37808     -933.99507     -493.88128      4333.3237    
      8300   112.67059     -933.81344      127.25517      4330.7465    
      8310   107.58915     -933.68229      635.41634      4328.3989    
      8320   119.41523     -934.02819      719.06508      4327.1777    
      8330   97.749471     -933.45001      608.44498      4327.2839    
      8340   70.711655     -932.71208      380.03848      4328.5223    
      8350   107.98808     -933.75353     -97.576986      4330.4346    
      8360   125.27692     -934.24356     -451.54975      4332.194     
      8370   91.653487     -933.32506     -539.87035      4333.1603    
      8380   105.13054     -933.71394     -628.51322      4333.1101    
      8390   117.36039     -934.07357     -421.8427       4331.9318    
      8400   85.125231     -933.19688      181.99995      4330.0367    
      8410   103.15447     -933.7108       558.21664      4328.4447    
      8420   131.92713     -934.53057      622.76906      4327.8539    
      8430   107.49579     -933.88382      579.00471      4328.4282    
      8440   103.64062     -933.80844      205.04596      4330.0412    
      8450   113.46026     -934.11498     -345.62088      4332.0198    
      8460   98.372524     -933.72813     -698.37789      4333.3937    
      8470   95.183682     -933.66521     -781.20264      4333.503     
      8480   101.36691     -933.85866     -520.66254      4332.2021    
      8490   101.62945     -933.88446      37.341862      4329.9749    
      8500   101.52712     -933.8984       571.18658      4327.8147    
      8510   89.23599      -933.56909      838.31476      4326.687     
      8520   95.5226       -933.75075      699.64689      4327.0703    
      8530   111.01568     -934.18805      275.39588      4328.7281    
      8540   93.240289     -933.70142     -167.25296      4330.9157    
      8550   93.593974     -933.71511     -600.65394      4332.8007    
      8560   111.79167     -934.22396     -830.42364      4333.597     
      8570   95.355263     -933.77283     -609.52697      4332.9139    
      8580   94.229898     -933.74559     -168.55224      4331.1206    
      8590   115.70455     -934.34612      276.56513      4329.0087    
      8600   102.12961     -933.97691      691.65739      4327.4157    
      8610   93.247029     -933.73911      816.6559       4327.0753    
      8620   102.62154     -934.0075       567.68615      4328.2139    
      8630   107.01413     -934.13782      47.908744      4330.389     
      8640   115.78107     -934.39545     -572.61782      4332.652     
      8650   99.180689     -933.95485     -910.10978      4333.9002    
      8660   73.155972     -933.24637     -840.30183      4333.5107    
      8670   89.578619     -933.7093      -488.20377      4331.5817    
      8680   101.39227     -934.03832      183.53591      4328.7839    
      8690   89.008605     -933.69159      896.58718      4326.3347    
      8700   100.49919     -934.00598      1128.8516      4325.4837    
      8710   109.54203     -934.25238      861.71485      4326.6763    
      8720   99.366308     -933.96789      264.68168      4329.4532    
      8730   104.3729      -934.10629     -576.08064      4332.7093    
      8740   98.709601     -933.94827     -1216.2114      4334.9375    
      8750   83.434244     -933.52246     -1236.5443      4334.9907    
      8760   92.422262     -933.76607     -650.07181      4332.8122    
      8770   106.31017     -934.13739      266.55052      4329.4545    
      8780   111.16674     -934.25461      1048.6725      4326.5641    
      8790   115.17669     -934.35276      1288.6117      4325.547     
      8800   113.94428     -934.31405      910.51953      4326.8553    
      8810   104.34967     -934.05116      97.805509      4329.8246    
      8820   86.011736     -933.54568     -769.40398      4332.9998    
      8830   77.82272      -933.31585     -1291.6994      4334.8083    
      8840   86.016792     -933.53291     -1183.8469      4334.2964    
      8850   88.734652     -933.58692     -444.49252      4331.6532    
      8860   99.742209     -933.85954      483.41271      4328.1858    
      8870   117.88517     -934.32006      1147.1795      4325.5633    
      8880   104.92948     -933.92019      1357.0897      4325.0146    
      8890   99.338976     -933.73398      941.00454      4326.9213    
      8900   123.01102     -934.35933      56.257696      4330.5492    
      8910   110.86819     -933.99422     -770.87319      4334.3425    
      8920   96.626298     -933.58017     -1366.8224      4336.7607    
      8930   117.24922     -934.13828     -1537.175       4336.6864    
      8940   104.4516      -933.77461     -900.07608      4333.8427    
      8950   79.769411     -933.08221      217.84623      4329.3535    
      8960   105.98302     -933.79652      1123.8543      4325.1934    
      8970   114.56359     -934.01766      1666.7785      4323.0566    
      8980   92.343869     -933.39155      1625.7361      4323.9502    
      8990   106.00911     -933.76514      732.79193      4327.7848    
      9000   120.78435     -934.16821     -557.66649      4333.0001    
      9010   103.65195     -933.69079     -1595.7997      4337.2836    
      9020   92.865164     -933.39415     -1995.9758      4338.7073    
      9030   100.28163     -933.6049      -1497.2289      4336.5138    
      9040   115.49743     -934.034       -282.82696      4331.5732    
      9050   117.78444     -934.11014      1074.9259      4326.0574    
      9060   96.962137     -933.55018      2004.6486      4322.4319    
      9070   95.759775     -933.53803      1998.3633      4322.3871    
      9080   115.93457     -934.12842      1029.9365      4325.9628    
      9090   108.38979     -933.95781     -306.59556      4331.5006    
      9100   90.700098     -933.50136     -1460.8293      4336.5973    
      9110   101.75394     -933.84274     -2106.0932      4339.0956    
      9120   102.6069      -933.9091      -1814.435       4337.7918    
      9130   93.366813     -933.69373     -655.63437      4333.1629    
      9140   108.08837     -934.14046      710.39333      4327.24      
      9150   108.60002     -934.19468      1799.036       4322.5133    
      9160   89.383988     -933.69727      2203.7659      4320.9933    
      9170   96.058225     -933.91528      1582.5966      4323.4453    
      9180   107.95628     -934.27795      251.94958      4328.8413    
      9190   95.779141     -933.9652      -1105.207       4334.848     
      9200   88.309064     -933.7732      -2042.1862      4338.9664    
      9210   96.106111     -934.00239     -2221.0696      4339.4135    
      9220   97.089534     -934.04346     -1423.5347      4335.799     
      9230   89.470079     -933.84005      62.87398       4329.5063    
      9240   94.012806     -933.96422      1538.1731      4323.1849    
      9250   100.87986     -934.14873      2425.4275      4319.5346    
      9260   96.802094     -934.03412      2355.7486      4320.2362    
      9270   95.93671      -934.01231      1230.265       4325.2578    
      9280   104.64664     -934.25167     -526.40649      4332.6664    
      9290   103.25437     -934.20481     -2121.1691      4339.3224    
      9300   94.440914     -933.95403     -2857.4659      4342.2621    
      9310   92.703762     -933.9064      -2386.8131      4340.0162    
      9320   91.068218     -933.86069     -844.06584      4333.3216    
      9330   94.259818     -933.93806      1116.3819      4324.8995    
      9340   94.337806     -933.91836      2731.2986      4318.3096    
      9350   94.343012     -933.89865      3241.6365      4316.5312    
      9360   105.44366     -934.19538      2269.9891      4320.6087    
      9370   106.38405     -934.21066      271.41201      4328.976     
      9380   91.368483     -933.77478     -1837.5893      4338.1345    
      9390   97.472195     -933.9199      -3265.8664      4344.193     
      9400   104.79827     -934.10526     -3328.6337      4344.4084    
      9410   95.480504     -933.83961     -1929.3304      4338.4875    
      9420   93.805145     -933.78199      269.87895      4328.8237    
      9430   88.027407     -933.59407      2450.5624      4319.3813    
      9440   87.849007     -933.55515      3742.1878      4314.1619    
      9450   118.86969     -934.38985      3435.4509      4315.6103    
      9460   119.54779     -934.39428      1676.6035      4323.4026    
      9470   95.052187     -933.70273     -854.14761      4334.5462    
      9480   109.25625     -934.07481     -3222.2248      4344.474     
      9490   110.84605     -934.10169     -4261.6656      4348.774     
      9500   86.136        -933.42        -3483.7553      4345.3213    
      9510   92.666899     -933.6106      -1287.9911      4335.3066    
      9520   98.524469     -933.76117      1652.7328      4322.6632    
      9530   91.939004     -933.54752      4157.5302      4312.7277    
      9540   111.58504     -934.072        4866.6299      4310.0734    
      9550   126.33179     -934.48887      3378.1795      4316.1898    
      9560   104.04724     -933.88876      428.04862      4328.6933    
      9570   88.638557     -933.45717     -2810.6406      4342.3866    
      9580   88.64961      -933.43694     -4946.6289      4351.3137    
      9590   97.933878     -933.69104     -4978.5779      4351.3443    
      9600   100.59763     -933.78173     -2805.3286      4342.1767    
      9610   102.07166     -933.82749      634.43048      4327.6194    
      9620   115.55114     -934.18119      3873.6079      4313.8829    
      9630   109.84686     -934.00792      5598.2762      4306.8873    
      9640   91.399162     -933.51237      4964.7219      4309.8834    
      9650   106.49226     -933.96289      2056.697       4321.9698    
      9660   120.80058     -934.36995     -1791.8628      4338.1572    
      9670   104.36621     -933.89968     -4846.8545      4351.5037    
      9680   98.94853      -933.74623     -5925.5007      4356.2129    
      9690   103.04882     -933.89085     -4577.2972      4350.0502    
      9700   96.702928     -933.75015     -1269.1434      4335.3312    
      9710   87.525709     -933.49248      2706.3116      4318.0505    
      9720   85.316023     -933.39651      5704.6001      4305.4247    
      9730   99.15961      -933.76477      6344.4082      4302.8954    
      9740   102.3705      -933.87519      4320.2574      4311.7884    
      9750   88.471574     -933.50582      475.17853      4328.7236    
      9760   110.94211     -934.10159     -3727.8626      4346.8636    
      9770   134.182       -934.70565     -6432.4162      4358.4837    
      9780   105.72374     -933.92669     -6363.6156      4358.4312    
      9790   89.222062     -933.51851     -3687.9638      4346.6262    
      9800   105.50712     -934.0011       525.31506      4327.9287    
      9810   103.37966     -933.9256       4746.5224      4310.0637    
      9820   100.88006     -933.83567      7057.6546      4300.6198    
      9830   109.07003     -934.09407      6274.3645      4303.7438    
      9840   95.618436     -933.78131      2815.8721      4318.216     
      9850   88.710028     -933.61178     -1847.7243      4337.9969    
      9860   95.889215     -933.78455     -5750.4269      4354.6497    
      9870   92.706227     -933.68055     -7190.2734      4360.9078    
      9880   89.779129     -933.63278     -5573.6803      4353.9806    
      9890   95.682127     -933.83673     -1565.4229      4336.8176    
      9900   105.37433     -934.09564      3181.2739      4316.7974    
      9910   110.2171      -934.18926      6606.3771      4302.5011    
      9920   101.22848     -933.93643      7193.5187      4300.0077    
      9930   94.48443      -933.79584      4695.6167      4310.3862    
      9940   102.39584     -934.05242      220.69504      4329.2882    
      9950   101.53951     -934.01287     -4250.3896      4348.7234    
      9960   101.14814     -933.97148     -6904.6075      4360.4692    
      9970   108.76176     -934.20123     -6730.8788      4359.5452    
      9980   99.804447     -934.01468     -3750.8849      4346.2932    
      9990   90.111077     -933.78241      837.49238      4326.2872    
     10000   91.606555     -933.80626      5127.0498      4307.9304    
     10010   87.432326     -933.6677       7311.0689      4298.8699    
     10020   89.925588     -933.76183      6402.6622      4302.8844    
     10030   104.52461     -934.2172       2773.8123      4318.3402    
     10040   102.93488     -934.18535     -1972.0256      4338.7939    
     10050   95.986495     -933.96027     -5887.6273      4355.6305    
     10060   97.647143     -933.99111     -7349.192       4361.6374    
     10070   90.143098     -933.82098     -5668.7601      4354.1754    
     10080   81.899759     -933.63489     -1558.2263      4336.481     
     10090   92.90329      -933.92616      3224.7598      4316.2       
     10100   106.7458      -934.25731      6677.5015      4301.9644    
     10110   103.2195      -934.14045      7279.2442      4299.7744    
     10120   99.622654     -934.07286      4697.0584      4310.5394    
     10130   106.71102     -934.29042      128.49571      4329.6285    
     10140   105.14169     -934.21508     -4346.4357      4348.8314    
     10150   91.093852     -933.78089     -6873.3277      4359.9777    
     10160   87.247983     -933.67192     -6529.4586      4358.4584    
     10170   99.704296     -934.04441     -3501.5957      4345.0767    
     10180   103.65766     -934.14924      1009.6841      4325.609     
     10190   89.49489      -933.70211      5100.6944      4308.324     
     10200   85.399668     -933.53461      6943.3289      4300.4121    
     10210   96.966693     -933.84063      5808.3865      4304.9364    
     10220   98.715976     -933.8859       2353.1395      4319.7548    
     10230   93.984773     -933.71536     -1937.9053      4338.6245    
     10240   103.56466     -933.90378     -5371.9432      4353.7412    
     10250   108.82857     -933.98682     -6496.7341      4358.8807    
     10260   103.95709     -933.83807     -4880.3416      4352.1337    
     10270   115.20927     -934.14975     -1340.899       4336.6802    
     10280   126.14691     -934.42454      2679.3883      4319.1569    
     10290   101.48045     -933.69998      5618.2896      4306.8255    
     10300   85.278101     -933.23793      6098.609       4304.7145    
     10310   108.10976     -933.89194      3882.8686      4313.4426    
     10320   105.89694     -933.84344      236.11823      4328.9791    
     10330   81.263789     -933.13873     -3295.0137      4344.7144    
     10340   101.77529     -933.67346     -5515.8346      4354.1978    
     10350   121.79628     -934.22097     -5399.8659      4353.5078    
     10360   100.26345     -933.6469      -2912.0251      4343.0925    
     10370   101.19875     -933.68432      681.00024      4327.6697    
     10380   115.80562     -934.07412      3894.6606      4313.8342    
     10390   96.308483     -933.52137      5491.0079      4307.2651    
     10400   94.821691     -933.49849      4654.6218      4310.5614    
     10410   106.97867     -933.86736      1890.8353      4322.0757    
[...]
     47810   95.478034     -934.0055      -2408.7279      4340.3547    
     47820   101.32057     -934.1744      -2398.8494      4340.2761    
     47830   100.51594     -934.16485     -1407.8603      4335.8918    
     47840   90.261575     -933.88964      144.9247       4329.0995    
     47850   85.467632     -933.75522      1614.5405      4322.7467    
     47860   96.033119     -934.04145      2402.5397      4319.4395    
     47870   93.727404     -933.97092      2251.633       4320.511     
     47880   92.94871      -933.94281      1135.7478      4325.5691    
     47890   109.19328     -934.3789      -524.83963      4332.5254    
     47900   106.17428     -934.2733      -1886.6695      4338.3933    
     47910   89.984939     -933.80509     -2394.2707      4340.7469    
     47920   96.597927     -933.97241     -1977.5289      4338.7299    
     47930   101.28318     -934.08011     -731.73516      4333.2259    
     47940   95.653805     -933.89252      859.65287      4326.5759    
     47950   102.8147      -934.0514       2026.9456      4321.6338    
     47960   104.87923     -934.06595      2299.1511      4320.4312    
     47970   97.971436     -933.83662      1588.8917      4323.3563    
     47980   99.242108     -933.83362      203.87427      4329.0446    
     47990   94.687297     -933.66158     -1179.6678      4334.9775    
     48000   88.732051     -933.44941     -1988.455       4338.6677    
     48010   99.091888     -933.69107     -1958.531       4338.7003    
     48020   108.90682     -933.91859     -1078.2176      4335.2301    
     48030   111.78046     -933.95908      224.86401      4329.923     
     48040   113.19191     -933.967        1329.4959      4325.1475    
     48050   110.35708     -933.86839      1822.8711      4322.8661    
     48060   104.27751     -933.69124      1556.4715      4323.9001    
     48070   104.30531     -933.68976      633.49501      4327.6897    
     48080   103.51054     -933.66563     -492.72299      4332.5375    
     48090   102.28828     -933.62915     -1334.8652      4336.4068    
     48100   108.30448     -933.79683     -1620.5576      4337.7933    
     48110   113.459       -933.94813     -1261.1562      4336.2381    
     48120   111.10147     -933.89834     -408.15738      4332.4602    
     48130   107.84045     -933.82674      572.14236      4328.0436    
     48140   102.99568     -933.71255      1304.9481      4324.7619    
     48150   93.679718     -933.47322      1501.9795      4323.8974    
     48160   98.076497     -933.61376      1016.7254      4325.7295    
     48170   102.10762     -933.74317      150.63964      4329.352     
     48180   97.575389     -933.63153     -678.67704      4333.19      
     48190   108.05323     -933.93642     -1247.3026      4335.7287    
     48200   114.26259     -934.1301      -1311.2264      4335.9753    
     48210   96.441945     -933.66083     -777.08779      4333.8782    
     48220   97.871866     -933.7225       30.340779      4330.4282    
     48230   114.38579     -934.20463      791.12231      4327.106     
     48240   101.02491     -933.86042      1276.8611      4325.2885    
     48250   94.188301     -933.6953       1129.1903      4325.7811    
     48260   110.48184     -934.17386      422.36142      4328.2747    
     48270   105.21486     -934.05575     -326.65544      4331.5098    
     48280   94.268635     -933.77611     -878.76233      4334.1147    
     48290   103.43131     -934.05274     -1127.9008      4335.085     
     48300   104.31899     -934.10113     -895.84751      4334.0177    
     48310   91.720046     -933.77212     -276.8294       4331.3681    
     48320   88.916264     -933.70745      414.03744      4328.2671    
     48330   93.023714     -933.82782      909.27326      4325.966     
     48340   93.627412     -933.84697      1027.522       4325.3402    
     48350   90.412144     -933.75732      744.55298      4326.5767    
     48360   92.536961     -933.81181      197.10127      4329.1432    
     48370   107.49006     -934.21971     -415.01974      4332.0323    
     48380   109.742       -934.27724     -819.8745       4334.1441    
     48390   102.08814     -934.0648      -906.25173      4334.7513    
     48400   109.50742     -934.27531     -717.46922      4333.7042    
     48410   106.84191     -934.20986     -232.1937       4331.3874    
     48420   91.484506     -933.79126      376.0078       4328.6984    
     48430   97.31682      -933.95759      759.01281      4326.7163    
     48440   102.10317     -934.09391      818.60767      4326.1289    
     48450   83.443112     -933.57713      608.99217      4327.0397    
     48460   82.254329     -933.54016      127.28022      4329.034     
     48470   96.322882     -933.91908     -377.07558      4331.2435    
     48480   99.348831     -933.98736     -640.47392      4332.7684    
     48490   100.69485     -934.01025     -640.31997      4333.1255    
     48500   103.95156     -934.0881      -411.44372      4332.3231    
     48510   103.99061     -934.07897     -40.327061      4330.7906    
     48520   106.06145     -934.12964      297.01565      4329.199     
     48530   97.206309     -933.87913      519.32816      4328.1688    
     48540   93.593166     -933.77405      488.12713      4328.0837    
     48550   104.08953     -934.05964      222.80325      4328.8774    
     48560   98.426081     -933.89645     -16.99687       4330.0922    
     48570   91.872222     -933.70797     -199.68383      4331.2808    
     48580   109.13989     -934.17992     -413.95763      4332.082     
     48590   107.80909     -934.13772     -441.4675       4332.1392    
     48600   93.498002     -933.73862     -247.76259      4331.4129    
     48610   98.334766     -933.87074     -20.537705      4330.2373    
     48620   96.917844     -933.82675      233.34543      4329.044     
     48630   92.687634     -933.70268      428.17623      4328.2941    
     48640   105.1637      -934.04092      409.80068      4328.3201    
     48650   106.46377     -934.06971      247.66479      4329.0962    
     48660   95.23355      -933.75289      21.735031      4330.3281    
     48670   99.322861     -933.86123     -270.54584      4331.5857    
     48680   99.959993     -933.8719      -457.17154      4332.3518    
     48690   96.811902     -933.77683     -428.96942      4332.2977    
     48700   107.06232     -934.05333     -260.00545      4331.467     
     48710   110.76244     -934.14982      11.352407      4330.1767    
     48720   98.606087     -933.81008      321.33189      4328.9291    
     48730   91.673698     -933.61523      487.20425      4328.2729    
     48740   101.68844     -933.88778      402.17778      4328.4964    
     48750   106.86212     -934.02383      180.11314      4329.4565    
     48760   98.123167     -933.77364     -67.433024      4330.753     
     48770   101.80894     -933.86702     -313.2456       4331.9223    
     48780   112.55322     -934.15437     -444.97479      4332.5232    
     48790   104.85725     -933.93178     -395.14533      4332.324     
     48800   101.10601     -933.82154     -272.1292       4331.4004    
     48810   104.6355      -933.91419     -47.004903      4329.9915    
     48820   86.764002     -933.4111       333.70537      4328.5349    
     48830   82.14286      -933.27124      581.54019      4327.6917    
     48840   104.30914     -933.866        542.46686      4327.8981    
     48850   113.49723     -934.09466      341.44981      4329.1027    
     48860   115.36318     -934.12568      0.3943415      4330.9283    
     48870   118.43451     -934.19915     -416.73481      4332.7433    
     48880   107.50833     -933.8934      -715.66332      4333.7978    
     48890   99.194757     -933.66601     -768.08275      4333.5492    
     48900   93.23535      -933.50416     -439.50129      4331.9262    
     48910   90.669901     -933.4322       164.86273      4329.5345    
     48920   108.43169     -933.92148      678.0832       4327.4475    
     48930   112.7549      -934.0405       923.31996      4326.6005    
     48940   98.760003     -933.65653      793.71235      4327.4338    
     48950   111.84949     -934.02861      209.26005      4329.6841    
     48960   114.72808     -934.12433     -469.91128      4332.3151    
     48970   85.460533     -933.32842     -856.56674      4334.1175    
     48980   95.001759     -933.60705     -966.44895      4334.3521    
     48990   111.84027     -934.09035     -639.9773       4332.8456    
     49000   98.661808     -933.74283      70.864162      4330.2107    
     49010   102.87617     -933.87853      683.28179      4327.7017    
     49020   114.49307     -934.22601      944.17507      4326.4264    
     49030   98.643556     -933.81613      845.87157      4326.8749    
     49040   94.042769     -933.71721      326.92246      4328.8447    
     49050   97.165152     -933.83013     -318.30921      4331.4134    
     49060   97.354462     -933.85871     -768.95662      4333.4217    
     49070   104.10596     -934.0709      -919.02289      4334.0352    
     49080   98.074033     -933.92959     -670.63336      4332.9907    
     49090   95.060154     -933.86931     -140.97362      4330.7377    
     49100   105.58056     -934.18493      431.25988      4328.2327    
     49110   94.887504     -933.9109       890.24678      4326.5296    
     49120   90.971839     -933.82099      926.78179      4326.4338    
     49130   106.1981      -934.26301      487.46474      4328.0027    
     49140   96.459542     -934.0119      -74.890184      4330.4766    
     49150   88.714154     -933.8111      -589.54997      4332.8253    
     49160   107.02833     -934.33291     -955.00711      4334.0923    
     49170   99.584596     -934.14191     -885.53521      4333.6404    
     49180   82.577037     -933.68207     -393.87073      4331.5974    
     49190   95.879964     -934.05872      232.84249      4328.8389    
     49200   99.566642     -934.16432      797.08832      4326.515     
     49210   91.492016     -933.94188      1021.3567      4325.6373    
     49220   95.715753     -934.05965      750.67325      4326.5988    
     49230   91.884064     -933.95013      192.64698      4328.9308    
     49240   86.122733     -933.78164     -405.21584      4331.6276    
     49250   95.488828     -934.02637     -840.44275      4333.5957    
     49260   97.902685     -934.07146     -884.2058       4334.0541    
     49270   100.66395     -934.12306     -562.35741      4332.9131    
     49280   113.07529     -934.43894     -50.363636      4330.7483    
     49290   109.62796     -934.31445      490.95303      4328.5005    
     49300   100.68286     -934.04151      772.5798       4327.1369    
     49310   97.118671     -933.91815      664.27019      4327.1642    
     49320   90.745692     -933.7129       306.02972      4328.4055    
     49330   86.820894     -933.56905     -130.67892      4330.2168    
     49340   86.357357     -933.51136     -466.63014      4331.8075    
     49350   92.90859      -933.63778     -582.11008      4332.5639    
     49360   109.29771     -934.02793     -454.02749      4332.2704    
     49370   113.55618     -934.0833      -116.45299      4331.1625    
     49380   105.39216     -933.80973      248.91115      4329.8458    
     49390   111.72674     -933.95209      416.2516       4328.9668    
     49400   111.67794     -933.92754      416.41027      4328.8494    
     49410   100.04418     -933.59139      275.74043      4329.4992    
     49420   102.03074     -933.63782     -7.8644682      4330.651     
     49430   110.67784     -933.87163     -287.89918      4331.798     
     49440   109.5224      -933.83874     -426.46216      4332.4362    
     49450   104.51844     -933.70425     -399.25715      4332.3055    
     49460   104.77436     -933.71845     -206.00645      4331.456     
     49470   109.06532     -933.84751      85.761495      4330.239     
     49480   105.44227     -933.76053      340.4237       4329.1807    
     49490   96.661394     -933.53063      421.13132      4328.7383    
     49500   104.67367     -933.76682      263.71056      4329.0524    
     49510   108.7403      -933.89665      48.925575      4329.8606    
     49520   94.221646     -933.51067     -78.356676      4330.7871    
     49530   100.98792     -933.71402     -240.8464       4331.5666    
     49540   112.90054     -934.06344     -346.15144      4331.9098    
     49550   101.4755      -933.76871     -234.92382      4331.6462    
     49560   100.65217     -933.7685      -51.818448      4330.9566    
     49570   111.78577     -934.10391      69.10706       4330.1614    
     49580   101.40511     -933.84569      180.00416      4329.4996    
     49590   89.59777      -933.54362      249.44911      4329.174     
     49600   101.87405     -933.90705      202.04025      4329.3018    
     49610   113.44963     -934.25456      106.96098      4329.8092    
     49620   106.65092     -934.09722      6.1471034      4330.527     
     49630   97.529626     -933.87485     -161.27597      4331.2541    
     49640   99.061195     -933.94518     -344.20333      4331.683     
     49650   99.565088     -933.98558     -355.82033      4331.4993    
     49660   88.307177     -933.69383     -142.95655      4330.6887    
     49670   93.049037     -933.83969      84.854972      4329.6113    
     49680   104.26631     -934.16316      255.44494      4328.6846    
     49690   91.253249     -933.81175      394.9126       4328.2375    
     49700   85.990932     -933.67034      362.9353       4328.5087    
     49710   102.77313     -934.13703      126.54791      4329.4348    
     49720   100.42903     -934.07121     -122.80922      4330.6098    
     49730   92.56588      -933.85167     -323.02715      4331.5731    
     49740   102.64245     -934.12912     -407.83637      4331.9552    
     49750   102.85134     -934.13238     -247.25648      4331.6188    
     49760   102.29735     -934.11616     -8.5780922      4330.833     
     49770   111.29277     -934.36811      122.4346       4330.0139    
     49780   104.66641     -934.1907       178.80185      4329.4168    
     49790   91.113173     -933.82168      168.59449      4329.1488    
     49800   87.2669       -933.71809      103.56292      4329.1928    
     49810   85.729608     -933.67215      44.585035      4329.4395    
     49820   90.576555     -933.79744     -24.291325      4329.7743    
     49830   98.810075     -934.01218     -64.262076      4330.0749    
     49840   98.299        -933.98251     -21.537762      4330.277     
     49850   98.957026     -933.98586     -0.73085194     4330.4414    
     49860   102.03316     -934.0569      -56.187959      4330.5979    
     49870   97.699695     -933.92325     -93.285926      4330.6597    
     49880   99.11524      -933.95022     -87.842822      4330.5584    
     49890   104.71108     -934.09396     -29.162149      4330.3051    
     49900   100.50671     -933.96784      88.282707      4330.0118    
     49910   96.815675     -933.8577       163.15242      4329.882     
     49920   102.22199     -934.00043      108.22037      4330.0429    
     49930   105.84399     -934.09511     -24.499708      4330.4025    
     49940   103.85856     -934.03753     -132.77519      4330.729     
     49950   99.111126     -933.90553     -158.21714      4330.8274    
     49960   93.737521     -933.75553     -114.73136      4330.6452    
     49970   94.735739     -933.78009     -46.070591      4330.2546    
     49980   101.83051     -933.97263      40.370894      4329.7825    
     49990   97.626017     -933.85177      152.86881      4329.3942    
     50000   88.419745     -933.59112      205.69685      4329.2874    
Loop time of 7.19555 on 1 procs for 50000 steps with 216 atoms

Performance: 600.371 ns/day, 0.040 hours/ns, 6948.736 timesteps/s, 1.501 Matom-step/s
98.8% CPU use with 1 MPI tasks x 1 OpenMP threads

MPI task timing breakdown:
Section |  min time  |  avg time  |  max time  |%varavg| %total
---------------------------------------------------------------
Pair    | 6.6523     | 6.6523     | 6.6523     |   0.0 | 92.45
Neigh   | 0          | 0          | 0          |   0.0 |  0.00
Comm    | 0.14012    | 0.14012    | 0.14012    |   0.0 |  1.95
Output  | 0.038814   | 0.038814   | 0.038814   |   0.0 |  0.54
Modify  | 0.3301     | 0.3301     | 0.3301     |   0.0 |  4.59
Other   |            | 0.03425    |            |       |  0.48

Nlocal:            216 ave         216 max         216 min
Histogram: 1 0 0 0 0 0 0 0 0 0
Nghost:            950 ave         950 max         950 min
Histogram: 1 0 0 0 0 0 0 0 0 0
Neighs:              0 ave           0 max           0 min
Histogram: 1 0 0 0 0 0 0 0 0 0
FullNghs:         7344 ave        7344 max        7344 min
Histogram: 1 0 0 0 0 0 0 0 0 0

Total # of neighbors = 7344
Ave neighs/atom = 34
Neighbor list builds = 0
Dangerous builds = 0


min_style cg
minimize 1e-10 1e-10 5000 10000
Per MPI rank memory allocation (min/avg/max) = 5.612 | 5.612 | 5.612 Mbytes
   Step          Temp          PotEng         Press          Volume    
     50000   88.419745     -933.59112      205.69685      4329.2874    
     50010   88.419745     -936.70069     -385.58737      4329.2874    
     50020   88.419745     -936.70428     -385.52462      4329.2874    
     50025   88.419745     -936.70429     -385.52425      4329.2874    
Loop time of 0.00624678 on 1 procs for 25 steps with 216 atoms

99.4% CPU use with 1 MPI tasks x 1 OpenMP threads

Minimization stats:
  Stopping criterion = energy tolerance
  Energy initial, next-to-last, final = 
      -933.59111968789  -936.704287471638  -936.704287552466
  Force two-norm initial, final = 10.390321 0.00090025659
  Force max component initial, final = 1.3230889 0.00011645881
  Final line search alpha, max atom move = 1 0.00011645881
  Iterations, force evaluations = 25 50

MPI task timing breakdown:
Section |  min time  |  avg time  |  max time  |%varavg| %total
---------------------------------------------------------------
Pair    | 0.0056861  | 0.0056861  | 0.0056861  |   0.0 | 91.02
Neigh   | 0          | 0          | 0          |   0.0 |  0.00
Comm    | 0.00014032 | 0.00014032 | 0.00014032 |   0.0 |  2.25
Output  | 1.4447e-05 | 1.4447e-05 | 1.4447e-05 |   0.0 |  0.23
Modify  | 0          | 0          | 0          |   0.0 |  0.00
Other   |            | 0.0004059  |            |       |  6.50

Nlocal:            216 ave         216 max         216 min
Histogram: 1 0 0 0 0 0 0 0 0 0
Nghost:            950 ave         950 max         950 min
Histogram: 1 0 0 0 0 0 0 0 0 0
Neighs:              0 ave           0 max           0 min
Histogram: 1 0 0 0 0 0 0 0 0 0
FullNghs:         7346 ave        7346 max        7346 min
Histogram: 1 0 0 0 0 0 0 0 0 0

Total # of neighbors = 7346
Ave neighs/atom = 34.009259
Neighbor list builds = 0
Dangerous builds = 0
variable teng equal "c_eatoms"
variable natoms equal "count(all)"
variable ecoh equal "v_teng/v_natoms"
variable lengthx equal lx/${xdim}
variable lengthx equal lx/3
variable lengthy equal ly/${ydim}
variable lengthy equal ly/3
variable lengthz equal lz/${zdim}
variable lengthz equal lz/3

print "cohesive energy: ${ecoh}"
cohesive energy: -4.33659392385401
print "x_length equals: ${lengthx}"
x_length equals: 5.43272285097478
print "y_length equals: ${lengthy}"
y_length equals: 5.43272285097478
print "z_length equals: ${lengthz}"
z_length equals: 5.43272285097478

variable lp_x equal ${lengthx}
variable lp_x equal 5.43272285097478
variable lp_y equal ${lengthy}
variable lp_y equal 5.43272285097478
variable lp_z equal ${lengthz}
variable lp_z equal 5.43272285097478

variable lp_avg equal "(v_lp_x + v_lp_y + v_lp_z) / 3"

print "lattice parameter equals ${lp_avg}"
lattice parameter equals 5.43272285097478
Total wall time: 0:00:07
