LAMMPS (30 Mar 2026)
OMP_NUM_THREADS environment is not set. Defaulting to 1 thread.
  using 1 OpenMP thread(s) per MPI task

# ------------------ Initialization ------------------
units           metal
boundary        p p p
atom_style      atomic

# ------------------ Geometry Generation -------------
# Silicon diamond cubic lattice constant is 5.431 Angstroms

variable pwd_path getenv PWD

variable structure_file string ../structures/si_structure.txt

read_data ../structures/si_structure.txt
Reading data file ...
  orthogonal box = (0 0 0) to (16.29 16.29 16.29)
  1 by 1 by 1 MPI processor grid
  reading atoms ...
  216 atoms
  read_data CPU = 0.001 seconds

# ------------------ Interatomic Potential -----------
# Using the standard Stillinger-Weber (SW) potential
pair_style      sw
pair_coeff      * * ../potentials/Si.sw Si
Reading sw potential file ../potentials/Si.sw with DATE: 2007-06-11


# ------------------ Compute -----------------
compute eng all pe/atom 	# a variable named 'eng' is defined to store the potential energy for each atom
compute eatoms all reduce sum c_eng  #a variable named 'eatoms' is defined to store the sum of all 'eng' values
compute new all temp


# ------------------ Energy Minimization -------------
# Relax the structure to remove any initial overlapping/strain
thermo          10
thermo_style    custom step temp pe press vol

minimize 1.0e-6 1.0e-6 5000 10000
Neighbor list info ...
  update: every = 1 steps, delay = 0 steps, check = yes
  max neighbors/atom: 2000, page size: 100000
  master list distance cutoff = 5.77118
  ghost atom cutoff = 5.77118
  binsize = 2.88559, bins = 6 6 6
  1 neighbor lists, perpetual/occasional/extra = 1 0 0
  (1) pair sw, perpetual
      attributes: full, newton on
      pair build: full/bin/atomonly
      stencil: full/bin/3d
      bin: standard
Per MPI rank memory allocation (min/avg/max) = 4.343 | 4.343 | 4.343 Mbytes
   Step          Temp          PotEng         Press          Volume    
         0   0             -936.70522      532.56802      4322.7812    
         1   0             -936.70522      532.56802      4322.7812    
Loop time of 0.000363168 on 1 procs for 1 steps with 216 atoms

65.3% CPU use with 1 MPI tasks x 1 OpenMP threads

Minimization stats:
  Stopping criterion = quadratic factors are zero
  Energy initial, next-to-last, final = 
     -936.705223045316  -936.705223045316  -936.705223045316
  Force two-norm initial, final = 1.1685261e-17 1.1685261e-17
  Force max component initial, final = 8.6736205e-19 8.6736205e-19
  Final line search alpha, max atom move = 1 8.6736205e-19
  Iterations, force evaluations = 1 2

MPI task timing breakdown:
Section |  min time  |  avg time  |  max time  |%varavg| %total
---------------------------------------------------------------
Pair    | 0.00034024 | 0.00034024 | 0.00034024 |   0.0 | 93.69
Neigh   | 0          | 0          | 0          |   0.0 |  0.00
Comm    | 8.857e-06  | 8.857e-06  | 8.857e-06  |   0.0 |  2.44
Output  | 0          | 0          | 0          |   0.0 |  0.00
Modify  | 0          | 0          | 0          |   0.0 |  0.00
Other   |            | 1.408e-05  |            |       |  3.88

Nlocal:            216 ave         216 max         216 min
Histogram: 1 0 0 0 0 0 0 0 0 0
Nghost:            950 ave         950 max         950 min
Histogram: 1 0 0 0 0 0 0 0 0 0
Neighs:              0 ave           0 max           0 min
Histogram: 1 0 0 0 0 0 0 0 0 0
FullNghs:         7344 ave        7344 max        7344 min
Histogram: 1 0 0 0 0 0 0 0 0 0

Total # of neighbors = 7344
Ave neighs/atom = 34
Neighbor list builds = 0
Dangerous builds = 0

# ------------------ Equilibration (NVT/NPT) ---------
reset_timestep  0
velocity all create ${temperature} 87287 loop geom
velocity all create 500 87287 loop geom

# Reference timestep for metal units with Silicon is typically 1-2 fs
timestep        0.001


# Tdamp - 100*Timestep
# Pdamp - 1000*Timestep
#
# Run NPT to fix temperature at 300K and pressure at 0 Bar
fix 1 all npt temp ${temperature} ${temperature} 0.1 iso ${pressure} ${pressure} 1.0
fix 1 all npt temp 500 ${temperature} 0.1 iso ${pressure} ${pressure} 1.0
fix 1 all npt temp 500 500 0.1 iso ${pressure} ${pressure} 1.0
fix 1 all npt temp 500 500 0.1 iso 0.0 ${pressure} 1.0
fix 1 all npt temp 500 500 0.1 iso 0.0 0.0 1.0

# Output settings

variable dump_path string "../results/lattice_parameter/si_out_${temperature}.dat"
../results/lattice_parameter/si_out_500.dat

dump 1 all custom 5000 ${dump_path} mass type xs ys zs
dump 1 all custom 5000 ../results/lattice_parameter/si_out_500.dat mass type xs ys zs

dump_modify 1 sort id

variable first_run_step equal ${steps}
variable first_run_step equal 50000

# Run the simulation
run ${first_run_step}
run 50000
Per MPI rank memory allocation (min/avg/max) = 3.218 | 3.218 | 3.218 Mbytes
   Step          Temp          PotEng         Press          Volume    
         0   500           -936.70522      3966.004       4322.7812    
        10   270.54254     -930.30741      4305.5485      4323.5417    
        20   157.47        -927.12443      3428.4327      4325.8757    
        30   306.36228     -931.1299       1368.923       4329.4571    
        40   194.90315     -927.80803      531.69824      4333.6067    
        50   146.76029     -926.33223     -247.82218      4337.9642    
        60   319.92406     -930.92779     -1566.5307      4342.2128    
        70   252.82998     -928.81281     -1772.1077      4345.9205    
        80   220.36142     -927.74959     -1976.1374      4348.9635    
        90   352.86517     -931.21418     -2773.429       4351.2396    
       100   276.93493     -928.84399     -2747.3354      4352.5019    
       110   238.50038     -927.57531     -2769.6494      4352.7227    
       120   338.22949     -930.08207     -3060.8301      4351.8825    
       130   265.1232      -927.75297     -2216.649       4349.9267    
       140   246.77138     -927.01091     -1285.2882      4347.1349    
       150   369.59809     -930.11552     -893.0721       4343.8371    
       160   315.37482     -928.25943      252.30523      4340.2339    
       170   275.73805     -926.88496      1482.4003      4336.7317    
       180   382.06437     -929.51495      1998.8995      4333.7631    
       190   336.72847     -927.89062      2772.6446      4331.5615    
       200   281.77852     -926.07477      3217.6413      4330.3946    
       210   377.13178     -928.40262      2622.5838      4330.4019    
       220   361.72661     -927.59959      2258.0609      4331.4097    
       230   289.4467      -925.28406      2103.7509      4333.2819    
       240   340.29151     -926.39031      1273.2781      4335.928     
       250   343.49028     -926.12341      629.74549      4339.0722    
       260   309.69356     -924.85603      412.7741       4342.4817    
       270   391.52183     -926.78134     -174.45877      4346.0466    
       280   448.43341     -927.94133     -868.31233      4349.5556    
       290   369.17135     -925.36033     -1216.6386      4352.7646    
       300   388.16494     -925.55474     -2011.1697      4355.5071    
       310   440.35435     -926.62235     -2756.5226      4357.4982    
       320   392.40863     -924.91881     -2912.0943      4358.4716    
       330   381.06309     -924.27066     -3001.1387      4358.3425    
       340   413.88863     -924.82844     -2664.879       4357.0879    
       350   398.09439     -924.02695     -1542.2984      4354.8496    
       360   460.18646     -925.38523     -632.88273      4352.0163    
       370   534.17425     -927.02868     -46.857184      4348.9301    
       380   441.43957     -924.08529      901.64069      4345.8408    
       390   388.66197     -922.32605      1478.1187      4343.0782    
       400   458.48047     -923.94241      1552.792       4340.8554    
       410   455.36268     -923.49949      1901.9378      4339.2308    
       420   433.73001     -922.5673       2110.7837      4338.3202    
       430   456.7369      -922.87482      2018.1978      4338.1972    
       440   437.75957     -922.01203      2288.9142      4338.8555    
       450   493.8869      -923.23916      2237.6219      4340.3754    
       460   546.14993     -924.3321       1685.4276      4342.7351    
       470   450.90981     -921.3771       1430.4991      4345.7611    
       480   478.26349     -921.86806      902.46875      4349.338     
       490   590.01963     -924.66128      69.572557      4353.2696    
       500   532.55437     -922.7805      -548.26895      4357.2641    
       510   539.32972     -922.74677     -1733.5584      4361.0548    
       520   609.9557      -924.50111     -3133.6931      4364.1994    
       530   444.26904     -919.74254     -3461.0182      4366.2073    
       540   403.14707     -918.47548     -3633.8907      4366.9086    
       550   590.71775     -923.50921     -3877.9525      4366.2209    
       560   532.6439      -921.71404     -2814.5824      4364.1009    
       570   428.79351     -918.69901     -1529.4961      4360.911     
       580   621.88279     -923.91792     -1247.1588      4357.0913    
       590   599.76559     -923.17291     -175.21187      4352.8191    
       600   413.44488     -917.92772      1493.0364      4348.4932    
       610   541.80193     -921.42096      1990.5962      4344.6781    
       620   624.94476     -923.65236      2420.3638      4341.6079    
       630   486.73663     -919.78739      3389.7668      4339.4692    
       640   533.58329     -921.08696      3486.9715      4338.5732    
       650   599.88962     -922.95134      3264.7669      4338.9885    
       660   519.47122     -920.78287      3018.4601      4340.6481    
       670   533.07942     -921.2493       2339.1178      4343.4511    
       680   565.25376     -922.25957      1655.1936      4347.1667    
       690   560.44582     -922.27384      725.71228      4351.5357    
       700   605.51391     -923.73254     -972.07885      4356.1889    
       710   464.15058     -920.03161     -2188.4825      4360.5295    
       720   379.90046     -917.83343     -3008.3338      4364.083     
       730   564.39174     -923.0945      -4055.7681      4366.5012    
       740   565.83615     -923.32417     -3976.3466      4367.428     
       750   419.69801     -919.43685     -3030.7759      4366.8743    
       760   535.54349     -922.80753     -2729.8737      4365.1345    
       770   634.55122     -925.77935     -2200.5037      4362.3536    
       780   497.76901     -922.23617     -905.63736      4358.7511    
       790   473.41777     -921.77815     -314.85214      4354.7598    
       800   507.04844     -922.92694     -47.546805      4350.6208    
       810   458.30797     -921.7629       641.40688      4346.4599    
       820   495.96572     -922.98002      1395.8251      4342.5225    
       830   494.60908     -923.11178      2317.8228      4339.1015    
       840   442.91004     -921.81967      3112.0676      4336.5365    
       850   463.54687     -922.51047      3358.0065      4335.1153    
       860   491.5593      -923.39743      3508.8033      4334.9565    
       870   482.01239     -923.23392      3453.0029      4336.1222    
       880   505.69218     -923.99429      2783.98        4338.5874    
       890   481.29612     -923.41702      2093.4655      4342.1353    
       900   465.86466     -923.07284      1404.9577      4346.517     
       910   524.3855      -924.77571      134.01793      4351.4593    
       920   535.98801     -925.18714     -1297.2013      4356.5012    
       930   478.09992     -923.67284     -2513.9091      4361.1115    
       940   444.846       -922.82607     -3791.4181      4364.8071    
       950   400.55101     -921.63856     -4769.4103      4367.0987    
       960   389.67294     -921.33883     -5014.0787      4367.6107    
       970   439.35541     -922.68078     -4523.9768      4366.2313    
       980   480.72976     -923.7581      -3284.8536      4363.1345    
       990   469.36873     -923.34935     -1607.5454      4358.7738    
      1000   498.58421     -924.05311     -246.53494      4353.7562    
      1010   529.99655     -924.80468      691.20489      4348.5925    
      1020   482.8496      -923.38072      1608.0016      4343.6554    
      1030   478.07149     -923.13623      2213.9787      4339.2781    
      1040   505.412       -923.77143      2980.769       4335.7112    
      1050   463.70222     -922.4839       4012.8327      4333.2534    
      1060   455.2538      -922.11749      4598.2158      4332.2801    
      1070   554.90723     -924.73445      4231.431       4333.0054    
      1080   508.27228     -923.29279      3727.4117      4335.3445    
      1090   440.09529     -921.28179      2848.952       4339.1178    
      1100   519.2081      -923.34575      1198.8741      4343.995     
      1110   508.85901     -922.90418     -202.89854      4349.4052    
      1120   404.21721     -919.85648     -1128.6315      4354.8295    
      1130   493.67779     -922.18097     -2263.0325      4359.8869    
      1140   575.3481      -924.24211     -3151.4762      4364.1575    
      1150   514.47533     -922.37761     -3623.3931      4367.2948    
      1160   455.7136      -920.60839     -4094.8513      4369.0826    
      1170   470.30382     -920.87243     -4250.3946      4369.3328    
      1180   524.64783     -922.22095     -3660.4432      4367.9833    
      1190   581.13003     -923.63229     -2595.6367      4365.2308    
      1200   555.75671     -922.80576     -1427.6002      4361.46      
      1210   556.21259     -922.7427      -725.77049      4357.0838    
      1220   519.81104     -921.68465      76.71007       4352.3882    
      1230   446.23937     -919.59971      1126.3931      4347.6796    
      1240   534.96907     -922.01141      1829.8537      4343.3322    
      1250   598.0443      -923.71703      2634.4103      4339.6356    
      1260   503.40992     -921.08225      3726.2786      4336.9075    
      1270   521.05865     -921.5842       4258.5538      4335.5428    
      1280   612.37161     -924.16645      4102.3543      4335.7554    
      1290   498.98126     -921.10554      3861.7129      4337.5365    
      1300   462.57427     -920.18343      2686.2145      4340.7855    
      1310   505.83332     -921.46588      1026.5739      4345.0985    
      1320   473.88141     -920.6465      -311.02568      4349.893     
      1330   493.35915     -921.24659     -1435.0396      4354.6595    
      1340   500.05524     -921.48703     -2036.3227      4358.9805    
      1350   491.62316     -921.30117     -2369.4381      4362.6097    
      1360   582.2512      -923.8856      -3023.4577      4365.3801    
      1370   551.58012     -923.14572     -2949.1175      4367.0683    
      1380   483.28702     -921.36942     -2553.6932      4367.6675    
      1390   620.33736     -925.33083     -3006.5931      4367.2664    
      1400   600.46776     -925.02511     -2975.9684      4365.726     
      1410   398.23274     -919.62478     -2126.0292      4363.0522    
      1420   494.29611     -922.45831     -2095.7309      4359.4882    
      1430   580.00221     -925.04735     -1793.2372      4355.0727    
      1440   385.58        -919.82122     -181.47495      4349.9525    
      1450   407.87811     -920.54079      757.82729      4344.6502    
      1460   525.69224     -923.89498      1535.5537      4339.5452    
      1470   455.08846     -922.00355      3057.3658      4334.9687    
      1480   438.41956     -921.58254      4326.9875      4331.4673    
      1490   522.45778     -923.94796      4900.6805      4329.5232    
      1500   493.44477     -923.17422      5296.445       4329.4041    
      1510   513.54431     -923.77631      4716.3044      4331.2631    
      1520   535.25913     -924.43997      3498.5319      4334.9363    
      1530   442.08409     -921.91385      2402.5215      4340.0305    
      1540   437.04615     -921.80695      1017.2369      4346.1461    
      1550   556.86806     -925.1491      -705.68802      4352.7755    
      1560   530.2532      -924.43299     -1750.5064      4359.3124    
      1570   479.14458     -923.04737     -2784.3637      4365.3243    
      1580   514.5273      -924.06449     -4293.4964      4370.38      
      1590   477.5637      -923.07088     -5233.0514      4373.9141    
      1600   442.45319     -922.12115     -5887.4748      4375.5121    
      1610   465.764       -922.78034     -6473.3497      4374.8689    
      1620   452.89808     -922.42345     -6092.8986      4371.7438    
      1630   392.27278     -920.71698     -4517.9383      4366.2461    
      1640   427.35875     -921.62893     -2706.7417      4358.904     
      1650   472.46494     -922.757       -382.67758      4350.4012    
      1660   489.0366      -923.04865      2288.6777      4341.6038    
      1670   535.10467     -924.133        4619.7455      4333.5021    
      1680   567.96412     -924.85009      6454.1233      4326.9874    
      1690   566.96727     -924.66719      7627.2408      4322.7743    
      1700   565.34898     -924.525        7519.7568      4321.3231    
      1710   513.61011     -923.04214      6397.1757      4322.659     
      1720   420.01437     -920.41333      4967.4051      4326.4438    
      1730   421.75463     -920.41142      3282.3619      4332.195     
      1740   459.20757     -921.3544       1682.0293      4339.3332    
      1750   450.5639      -920.97989      793.46515      4347.3121    
      1760   534.97657     -923.16112     -459.77584      4355.7731    
      1770   648.88136     -926.14579     -2399.8476      4364.2353    
      1780   563.31716     -923.65437     -3982.9523      4371.9889    
      1790   448.91407     -920.41134     -5633.8687      4378.3814    
      1800   513.51203     -922.1411      -7753.8124      4382.7142    
      1810   455.01211     -920.4476      -8488.5761      4384.1834    
      1820   362.70162     -917.81868     -7670.871       4382.4384    
      1830   516.82008     -922.00117     -6248.9924      4377.7014    
      1840   642.71328     -925.36015     -4144.9704      4370.4765    
      1850   524.26404     -921.98492     -1311.5325      4361.5488    
      1860   530.50216     -922.10761      698.89518      4351.9245    
      1870   591.59074     -923.7624       2520.3109      4342.3949    
      1880   512.72041     -921.55548      4600.139       4333.6754    
      1890   500.02184     -921.19989      5980.9584      4326.5275    
      1900   536.26093     -922.2158       6813.1359      4321.5012    
      1910   498.57679     -921.19618      7470.4039      4318.9576    
      1920   528.02238     -922.06785      7467.0108      4319.1665    
      1930   520.23048     -921.93616      6894.3534      4322.1862    
      1940   491.07616     -921.23026      5630.2173      4327.858     
      1950   552.48227     -923.06668      3601.0799      4335.7623    
      1960   516.50091     -922.23157      1565.4847      4345.212     
      1970   468.24362     -921.05548     -669.09568      4355.4578    
      1980   551.4727      -923.55822     -3454.7547      4365.6416    
      1990   483.03455     -921.88976     -5604.0486      4374.7281    
      2000   384.44443     -919.33495     -7094.3721      4381.8504    
      2010   530.27081     -923.58412     -8564.4797      4386.3531    
      2020   545.91339     -924.30025     -8810.6638      4387.6562    
      2030   411.60791     -920.82784     -7701.3925      4385.6099    
      2040   493.07812     -923.31509     -6441.4787      4380.5455    
      2050   573.03315     -925.78899     -4672.6565      4372.9332    
      2060   518.00619     -924.5066      -2433.3485      4363.4308    
      2070   517.06311     -924.68932     -483.96348      4352.8564    
      2080   481.31231     -923.86132      1474.5261      4341.9641    
      2090   399.00332     -921.6606       3506.7928      4331.5026    
      2100   396.41615     -921.60626      5241.1102      4322.2288    
      2110   383.1363      -921.19745      7161.4699      4314.8258    
      2120   439.61702     -922.68879      8822.5         4310.0139    
      2130   568.6423      -926.18884      9534.8771      4308.4145    
      2140   487.32949     -923.88434      9766.6977      4310.3588    
      2150   429.56597     -922.2664       8562.409       4315.9535    
      2160   551.39952     -925.63215      5718.9122      4324.8026    
      2170   489.04159     -923.87355      3040.85        4335.9666    
      2180   413.63641     -921.74417      364.0397       4348.4642    
      2190   494.16573     -923.90072     -2778.3435      4361.2751    
      2200   489.77701     -923.65483     -5389.6765      4373.23      
      2210   452.96273     -922.50054     -7532.4664      4383.2897    
      2220   509.18483     -923.92174     -9520.5793      4390.5664    
      2230   452.34581     -922.20736     -10408.979      4394.2759    
      2240   399.83767     -920.63644     -10313.706      4394.0158    
      2250   507.03634     -923.49082     -9419.4621      4389.7758    
      2260   506.50465     -923.33818     -7118.2688      4381.9026    
      2270   446.1274      -921.54196     -4107.6407      4371.2514    
      2280   572.55563     -924.91543     -1564.0164      4358.937     
      2290   599.55299     -925.52039      1255.4332      4345.9723    
      2300   457.83749     -921.48109      4103.592       4333.4251    
      2310   429.18909     -920.58072      6105.4439      4322.3425    
      2320   501.05335     -922.44279      7778.3794      4313.4901    
      2330   476.29119     -921.61269      9884.5898      4307.5256    
      2340   495.43883     -922.02495      10880.982      4305.1802    
      2350   547.52379     -923.37684      10342.779      4306.8284    
      2360   505.0041      -922.14421      9013.4455      4312.3295    
      2370   470.74098     -921.16733      6830.1757      4321.2268    
      2380   532.40987     -922.84756      3862.2953      4332.7432    
      2390   526.35982     -922.6346       1033.3578      4345.8305    
      2400   492.46977     -921.64472     -1927.8409      4359.4161    
      2410   487.55014     -921.43764     -4769.8158      4372.3761    
      2420   522.87156     -922.33119     -7156.77        4383.609     
      2430   546.48365     -922.90777     -8907.7904      4392.1716    
      2440   546.2492      -922.86138     -10063.719      4397.351     
      2450   515.79196     -922.02061     -10442.117      4398.6776    
      2460   521.26077     -922.21678     -10004.609      4395.9899    
      2470   535.03024     -922.68053     -8749.8209      4389.4536    
      2480   484.0844      -921.36627     -6469.4603      4379.5731    
      2490   464.44805     -920.90477     -3839.8987      4367.2213    
      2500   525.12095     -922.65295     -1208.8938      4353.4166    
      2510   488.47262     -921.67811      1967.3497      4339.2011    
      2520   433.28013     -920.14974      5342.9301      4325.7699    
      2530   516.25997     -922.42516      8233.9641      4314.3627    
      2540   583.44628     -924.27882      10431.186      4306.0326    
      2550   468.73398     -921.12836      11955.774      4301.577     
      2560   454.16109     -920.78629      11999.417      4301.5133    
      2570   574.3566      -924.23449      10749.143      4305.863     
      2580   556.44816     -923.92674      8924.687       4314.2042    
      2590   497.73433     -922.54138      6165.3887      4325.8699    
      2600   534.45745     -923.84515      2397.7946      4339.8452    
      2610   508.39263     -923.43717     -1275.688       4354.7623    
      2620   436.98699     -921.72863     -4421.4572      4369.237     
      2630   451.2705      -922.34396     -7393.4514      4382.0339    
      2640   472.95572     -923.13686     -9883.5744      4392.0003    
      2650   450.28127     -922.66888     -11328.918      4398.1768    
      2660   454.33989     -922.92348     -11741.094      4399.9933    
      2670   463.50549     -923.31572     -11085.889      4397.3004    
      2680   453.29488     -923.15996     -9405.9105      4390.376     
      2690   457.61924     -923.38709     -6959.685       4379.897     
      2700   474.53838     -923.9299      -3971.9558      4366.8427    
      2710   503.93159     -924.78581     -1017.0236      4352.3737    
      2720   470.74758     -923.87268      2134.7638      4337.6494    
      2730   380.31028     -921.31697      5541.643       4323.867     
      2740   432.25339     -922.6609       8403.2037      4312.2582    
      2750   548.16277     -925.74367      10476.586      4303.8444    
      2760   494.01332     -924.12339      12194.712      4299.3681    
      2770   460.70095     -923.12685      12487.353      4299.3841    
      2780   538.6314      -925.24445      10915.572      4303.9559    
      2790   471.16987     -923.34155      8590.8857      4312.5362    
      2800   426.65819     -922.07928      5429.6746      4324.2562    
      2810   483.34465     -923.58025      1884.8101      4337.9556    
      2820   456.12967     -922.69721     -1194.4275      4352.3334    
      2830   440.27078     -922.0975      -4000.2308      4366.2095    
      2840   504.95652     -923.69096     -6647.8974      4378.4993    
      2850   463.60341     -922.32187     -8565.9838      4388.2032    
      2860   450.83098     -921.76897     -10184.661      4394.5637    
      2870   524.91734     -923.63546     -11271.208      4396.9726    
      2880   460.82702     -921.70175     -10629.88       4395.0827    
      2890   426.23014     -920.63683     -8850.4394      4389.1603    
      2900   549.65377     -923.95765     -6763.3861      4379.9099    
      2910   551.77397     -923.91756     -3859.8534      4368.2074    
      2920   478.88519     -921.82519     -557.28943      4355.1901    
      2930   518.49442     -922.85164      2383.2629      4342.1089    
      2940   554.37384     -923.76651      5193.348       4330.0845    
      2950   537.73441     -923.24216      7663.5185      4320.1414    
      2960   544.19779     -923.3927       9208.9805      4313.1393    
      2970   516.21276     -922.62006      9889.153       4309.6081    
      2980   508.44086     -922.43884      9487.2618      4309.7452    
      2990   495.05373     -922.12472      8051.9393      4313.3677    
      3000   390.0645      -919.2537       6117.3078      4319.9434    
      3010   380.97645     -919.0044       3584.8866      4328.7302    
      3020   478.18318     -921.64769      1447.984       4338.8148    
      3030   514.571       -922.56155     -8.5783487      4349.4004    
      3040   517.63558     -922.5474      -1423.042       4359.9161    
      3050   593.50611     -924.56422     -3403.1101      4369.7997    
      3060   603.77594     -924.79961     -5275.8018      4378.3221    
      3070   512.81671     -922.27564     -6740.8901      4384.7793    
      3080   508.02358     -922.16687     -8077.1168      4388.6054    
      3090   542.18726     -923.16574     -8759.0336      4389.323     
      3100   491.0732      -921.82496     -8335.4928      4386.7156    
      3110   470.03632     -921.32778     -7199.2428      4380.9657    
      3120   516.34225     -922.70018     -5294.0055      4372.5562    
      3130   516.68175     -922.79917     -2789.6282      4362.2496    
      3140   449.36949     -920.99965     -53.783181      4351.0216    
      3150   470.48861     -921.62216      2188.1745      4339.8959    
      3160   529.52273     -923.28039      4134.2394      4329.7216    
      3170   490.57076     -922.21991      6144.1496      4321.2216    
      3180   424.77029     -920.40248      7994.6406      4315.1072    
      3190   493.83256     -922.32161      8964.6845      4312.0017    
      3200   565.34459     -924.32649      8927.711       4312.225     
      3210   512.97861     -922.93802      8174.3263      4315.7415    
      3220   478.70232     -922.07556      6707.6556      4322.2528    
      3230   547.82957     -924.10619      4361.4678      4331.1924    
      3240   489.39193     -922.61267      2014.1845      4341.7111    
      3250   425.30923     -920.94325     -336.58079      4352.9208    
      3260   531.26819     -923.988       -3038.8206      4363.9151    
      3270   574.30149     -925.33065     -5280.5739      4373.6947    
      3280   473.02685     -922.7028      -6834.7569      4381.4121    
      3290   451.56216     -922.29047     -8425.1512      4386.4501    
      3300   457.91109     -922.6601      -9630.3018      4388.2276    
      3310   421.26516     -921.82993     -9315.5108      4386.3496    
      3320   431.75309     -922.2884      -7699.7111      4380.968     
      3330   486.62597     -923.97073     -5605.8763      4372.718     
      3340   471.87984     -923.70135     -2883.6539      4362.4547    
      3350   466.81315     -923.66642     -92.510304      4351.2276    
      3360   494.57833     -924.51594      2247.4562      4340.0911    
      3370   477.81951     -924.10908      4391.4745      4329.9344    
      3380   432.68843     -922.8879       6134.7737      4321.532     
      3390   434.19502     -922.93361      7376.8117      4315.4991    
      3400   466.19285     -923.80826      8154.7319      4312.2591    
      3410   459.17146     -923.58977      8495.5748      4312.0682    
      3420   472.3839      -923.93087      7944.7784      4315.0047    
      3430   492.23854     -924.44952      6744.7235      4320.8542    
      3440   477.05737     -923.98552      5027.3577      4329.1635    
      3450   482.75938     -924.08218      2579.7357      4339.2751    
      3460   499.342       -924.44728     -109.10824      4350.2838    
      3470   465.96065     -923.39288     -2599.0707      4361.1867    
      3480   463.85341     -923.17607     -5203.477       4371.0226    
      3490   473.33312     -923.24062     -7526.6492      4378.8102    
      3500   393.3         -920.80302     -8600.8591      4383.7022    
      3510   387.90177     -920.43404     -8772.9371      4385.2883    
      3520   505.47043     -923.42288     -8171.0691      4383.5253    
      3530   527.35598     -923.7316      -6310.6724      4378.7001    
      3540   506.89734     -922.93431     -4008.1165      4371.537     
      3550   568.88698     -924.47759     -2177.0568      4362.9139    
      3560   530.53998     -923.28495     -260.64134      4353.5743    
      3570   485.67756     -921.95551      1466.0896      4344.2414    
      3580   502.60947     -922.35192      2966.3568      4335.564     
      3590   466.8362      -921.28418      4715.6199      4328.1098    
      3600   447.81838     -920.67599      6347.872       4322.4996    
      3610   552.01916     -923.48791      7173.7877      4319.2887    
      3620   550.2707      -923.38294      7644.6983      4318.7735    
      3630   493.30423     -921.78599      7410.6293      4321.0934    
      3640   575.70933     -924.08905      5758.2206      4326.113     
      3650   538.45747     -923.09994      3911.9566      4333.2504    
      3660   395.6963      -919.17531      2051.4985      4341.8136    
      3670   463.03638     -921.04627     -538.3071       4351.0693    
      3680   567.46335     -923.91361     -2801.2078      4360.0761    
      3690   472.92778     -921.26035     -4013.8597      4368.0018    
      3700   440.46753     -920.32633     -5139.1505      4374.3485    
      3710   561.92165     -923.65286     -6308.6303      4378.6868    
      3720   571.67235     -923.90059     -6497.0074      4380.6195    
      3730   514.2202      -922.3286      -6002.3988      4380.0796    
      3740   545.11481     -923.24144     -5633.7283      4377.2473    
      3750   536.75987     -923.09692     -4888.8821      4372.3078    
      3760   452.77909     -920.8613      -3532.482       4365.5782    
      3770   437.20695     -920.4993      -2012.0972      4357.5812    
      3780   507.55853     -922.4998      -242.43758      4348.9149    
      3790   514.45918     -922.73055      1878.8235      4340.2602    
      3800   459.45351     -921.23132      4078.5255      4332.408     
      3810   496.32837     -922.27149      5723.024       4326.1449    
      3820   548.26752     -923.73977      6954.0009      4322.0698    
      3830   525.2913      -923.16073      7715.71        4320.6139    
      3840   534.90337     -923.5253       7423.0835      4322.0168    
      3850   579.93142     -924.93074      5817.462       4326.1401    
      3860   501.46843     -922.95269      3759.1353      4332.4056    
      3870   402.71231     -920.3811       1677.9872      4340.0475    
      3880   424.32966     -921.10628     -214.80409      4348.2873    
      3890   473.82547     -922.57792     -1899.4585      4356.4111    
      3900   501.09689     -923.42328     -3555.7857      4363.7722    
      3910   488.48165     -923.16249     -4849.9611      4369.7538    
      3920   452.65657     -922.24917     -5631.2832      4373.8707    
      3930   471.91717     -922.85773     -6134.1002      4375.8225    
      3940   486.04052     -923.32578     -6151.2597      4375.4376    
      3950   458.69771     -922.63991     -5301.6466      4372.7419    
      3960   497.57408     -923.78696     -3996.1345      4368.065     
      3970   567.70518     -925.82022     -2524.4249      4361.9152    
      3980   497.72383     -923.98687     -668.42433      4354.8815    
      3990   454.42916     -922.88619      720.09881      4347.6449    
      4000   503.42583     -924.34971      1427.3085      4340.7225    
      4010   432.84516     -922.48603      2637.3121      4334.4205    
      4020   383.44176     -921.17057      4018.2156      4329.1689    
      4030   466.974       -923.52223      4999.3012      4325.4508    
      4040   460.77793     -923.3611       5907.4207      4323.6338    
      4050   467.73362     -923.55827      5995.4379      4324.0119    
      4060   511.67572     -924.77743      5084.6758      4326.5994    
      4070   467.7126      -923.5518       3828.639       4331.0703    
      4080   419.24719     -922.18207      2477.9445      4336.957     
      4090   464.98461     -923.38711      942.8022       4343.7443    
      4100   466.52371     -923.30941     -445.74095      4350.866     
      4110   465.6556      -923.12581     -1723.9842      4357.7952    
      4120   512.18896     -924.21083     -3007.0781      4364.0404    
      4130   529.17514     -924.44311     -3954.2421      4369.129     
      4140   515.20125     -923.82129     -4886.2137      4372.6889    
      4150   495.98526     -923.07104     -5717.1984      4374.3709    
      4160   467.66227     -922.08346     -5753.2961      4373.8915    
      4170   470.22799     -921.9614      -5012.4383      4371.2491    
      4180   492.11207     -922.37135     -3938.5386      4366.7272    
      4190   491.54209     -922.16288     -2592.4732      4360.7516    
      4200   497.88234     -922.15981     -1040.132       4353.8467    
      4210   501.50298     -922.09102      701.16067      4346.6114    
      4220   491.10299     -921.64556      2379.7635      4339.697     
      4230   509.86488     -922.02105      3810.9457      4333.7252    
      4240   528.46534     -922.40732      4907.2967      4329.2178    
      4250   497.83407     -921.45179      5779.1677      4326.5767    
      4260   518.4969      -921.94454      5963.3324      4326.0959    
      4270   560.84624     -923.06299      5358.5291      4327.8268    
      4280   500.161       -921.3511       4543.9986      4331.5565    
      4290   492.35563     -921.12148      3374.3032      4336.9706    
      4300   578.1545      -923.49522      1650.5164      4343.6191    
      4310   561.676       -923.05819      74.608546      4350.8781    
      4320   465.2084      -920.41209     -1118.7954      4358.16      
      4330   544.00564     -922.63265     -2722.6137      4364.9778    
      4340   583.32867     -923.77817     -4142.0542      4370.7474    
      4350   509.82865     -921.82388     -5147.1418      4374.9317    
      4360   501.84244     -921.70064     -6084.6986      4377.1357    
      4370   523.26092     -922.4111      -6632.4361      4377.0172    
      4380   469.53861     -921.04593     -6108.7141      4374.4046    
      4390   415.9072      -919.65971     -4920.6175      4369.4992    
      4400   447.81448     -920.61565     -3351.5232      4362.766     
      4410   524.6806      -922.79802     -1395.3396      4354.8224    
      4420   548.01662     -923.49869      962.77483      4346.4249    
      4430   495.48647     -922.09762      3348.1504      4338.4588    
      4440   517.08685     -922.75629      4861.3617      4331.7824    
      4450   563.84941     -924.14062      5791.3317      4326.9598    
      4460   525.03927     -923.18823      6568.0337      4324.3364    
      4470   515.16257     -923.06618      6607.6536      4324.1631    
      4480   547.46667     -924.15898      5743.0089      4326.436     
      4490   478.95607     -922.4713       4472.5165      4330.844     
      4500   449.2287      -921.83503      2675.6406      4336.8989    
      4510   485.81125     -923.02226      798.72687      4343.9419    
      4520   468.07261     -922.68091     -817.74317      4351.2755    
      4530   442.55693     -922.08888     -2214.2041      4358.2863    
      4540   459.43091     -922.64071     -3485.6495      4364.4401    
      4550   496.79836     -923.74379     -4755.7345      4369.247     
      4560   494.34436     -923.74033     -5702.4001      4372.2346    
      4570   420.71913     -921.74712     -5917.9344      4373.0611    
      4580   409.41773     -921.45406     -5522.6777      4371.6479    
      4590   492.23388     -923.74921     -4707.7855      4368.1504    
      4600   486.41186     -923.56532     -3062.2368      4362.9147    
      4610   476.3014      -923.25283     -1082.1428      4356.5637    
      4620   559.0596      -925.51038      586.36254      4349.8371    
      4630   553.14774     -925.32097      2100.53        4343.3773    
      4640   467.6977      -922.93942      3320.1301      4337.7478    
      4650   504.02032     -923.94051      3704.6435      4333.3768    
      4660   495.14945     -923.68334      3898.149       4330.4208    
      4670   429.76338     -921.85045      4142.9012      4328.9495    
      4680   447.85152     -922.31835      4001.5345      4329.0291    
      4690   418.73705     -921.44253      3622.9691      4330.6044    
      4700   409.97289     -921.09948      2971.6631      4333.5276    
      4710   486.77701     -923.07891      2211.1071      4337.5569    
      4720   496.70735     -923.14978      1814.1258      4342.4232    
      4730   505.49187     -923.17561      1148.6217      4347.9566    
      4740   564.55903     -924.57416     -335.66503      4353.8834    
      4750   530.36273     -923.38716     -1718.8339      4359.6772    
      4760   503.78173     -922.44428     -2988.1159      4364.8104    
      4770   536.69354     -923.16034     -4310.6435      4368.7894    
      4780   474.66895     -921.2571      -4987.1346      4371.1382    
      4790   472.33606     -921.03945     -5210.0132      4371.5929    
      4800   519.98059     -922.21165     -4782.0749      4370.0816    
      4810   481.15051     -921.00557     -3364.0919      4366.7927    
      4820   550.01693     -922.82329     -2068.2626      4362.2379    
      4830   618.45703     -924.67418     -1090.2858      4356.9145    
      4840   492.66031     -921.1833       170.66774      4351.2245    
      4850   454.16038     -920.11541      1131.2306      4345.6228    
      4860   531.25653     -922.24741      1972.8839      4340.4762    
      4870   482.92517     -920.89195      3257.5602      4336.1212    
      4880   505.35912     -921.50353      3954.9523      4332.9955    
      4890   580.60473     -923.59823      4256.6627      4331.3598    
      4900   496.2601      -921.28765      4804.5907      4331.3452    
      4910   480.8574      -920.89736      4547.6972      4333.1126    
      4920   569.33676     -923.40186      3408.6695      4336.5591    
      4930   526.13096     -922.27266      2294.9397      4341.2904    
      4940   476.20463     -920.96124      899.91267      4346.8728    
      4950   515.38541     -922.11779     -665.95476      4352.7819    
      4960   520.26578     -922.32222     -1762.1463      4358.4491    
      4970   534.07689     -922.78749     -2696.9676      4363.4444    
      4980   547.04709     -923.25498     -3567.9925      4367.4078    
      4990   518.97691     -922.60368     -4240.8259      4370.0134    
      5000   523.42188     -922.87319     -4821.2816      4370.9997    
      5010   494.09621     -922.21938     -4877.8885      4370.162     
      5020   406.9817      -919.93064     -3885.2109      4367.5085    
      5030   464.85377     -921.63082     -2891.3677      4363.3868    
      5040   580.80557     -924.9543      -2008.7702      4358.1819    
      5050   498.97074     -922.80608     -422.31557      4352.2692    
      5060   443.1582      -921.35559      1035.7287      4346.2252    
      5070   523.4232      -923.67569      1685.7706      4340.5745    
      5080   463.11184     -922.08631      2760.4548      4335.6072    
      5090   405.98386     -920.54891      4015.4771      4331.7081    
      5100   535.37764     -924.17622      4713.9611      4329.313     
      5110   557.19677     -924.83331      5277.6795      4328.6968    
      5120   489.17353     -923.02126      5348.3046      4330.0523    
      5130   522.43759     -924.03674      4276.8079      4333.3774    
      5140   521.39761     -924.11379      2768.4143      4338.2982    
      5150   460.75669     -922.53285      1098.5459      4344.2556    
      5160   436.44621     -921.9328      -794.31264      4350.6165    
      5170   440.53289     -922.08549     -2452.9241      4356.6795    
      5180   456.4332      -922.53527     -3430.9805      4361.8296    
      5190   484.39664     -923.30179     -4003.8279      4365.6816    
      5200   476.64113     -923.06513     -4422.31        4368.0086    
      5210   475.5739      -923.00696     -4496.3905      4368.6588    
      5220   493.949       -923.47954     -3985.729       4367.6169    
      5230   494.67567     -923.45395     -3081.7648      4365.0765    
      5240   514.88256     -923.96519     -2207.068       4361.3756    
      5250   523.76304     -924.16202     -1560.7006      4356.845     
      5260   476.63724     -922.80642     -721.07077      4351.7522    
      5270   442.58907     -921.80033      351.38231      4346.419     
      5280   461.64722     -922.23574      1458.9582      4341.2451    
      5290   466.37287     -922.23241      2442.5324      4336.6395    
      5300   462.70607     -921.96451      3535.7279      4332.9786    
      5310   485.29154     -922.39199      4649.4237      4330.664     
      5320   544.09339     -923.7969       5163.6152      4330.0855    
      5330   572.96708     -924.37241      4918.3336      4331.428     
      5340   524.94904     -922.85845      4117.1534      4334.6048    
      5350   489.77877     -921.73792      2716.9805      4339.3125    
      5360   511.06793     -922.18906      1004.6224      4345.0358    
      5370   483.92072     -921.29195     -431.76979      4351.1491    
      5380   466.1059      -920.65741     -1506.7329      4357.1119    
      5390   533.81532     -922.38692     -2519.8409      4362.5021    
      5400   550.91597     -922.71665     -3243.7411      4366.9412    
      5410   556.43331     -922.76485     -3823.4491      4370.1487    
      5420   574.93276     -923.22013     -4461.3307      4371.8927    
      5430   496.60516     -921.02603     -4614.536       4371.9525    
      5440   473.21267     -920.37048     -4545.7395      4370.26      
      5450   524.36625     -921.78569     -4262.4266      4366.8466    
      5460   471.0978      -920.3024      -3182.3002      4361.8498    
      5470   444.43838     -919.54547     -1428.234       4355.6868    
      5480   546.51506     -922.3432       391.70469      4349.0091    
      5490   577.75425     -923.1792       2342.9747      4342.5157    
      5500   550.4722      -922.42641      4051.2989      4336.9288    
      5510   582.57655     -923.3629       4981.2929      4332.8636    
      5520   580.64104     -923.40683      5438.7732      4330.6738    
      5530   513.05461     -921.66075      5409.0709      4330.5227    
      5540   503.90068     -921.53996      4442.6841      4332.3756    
      5550   529.27588     -922.38104      3091.1819      4335.8899    
      5560   507.43948     -921.91121      1853.5516      4340.575     
      5570   456.32214     -920.60226      718.6159       4345.9668    
      5580   474.34244     -921.17779     -691.76238      4351.6222    
      5590   518.61899     -922.46471     -2050.2071      4357.0176    
      5600   481.47558     -921.47788     -2653.3227      4361.6635    
      5610   490.35389     -921.75563     -3190.3135      4365.2993    
      5620   550.06383     -923.44476     -3758.4955      4367.7187    
      5630   531.0543      -922.96475     -3934.3116      4368.7203    
      5640   483.55961     -921.69662     -3859.2135      4368.2319    
      5650   519.97609     -922.75528     -3676.3841      4366.2792    
      5660   527.88681     -923.02772     -2912.6181      4362.955     
      5670   479.98989     -921.74594     -1639.6503      4358.5526    
      5680   517.04056     -922.81469     -438.12493      4353.5402    
      5690   551.77203     -923.82157      632.78766      4348.3778    
      5700   531.15092     -923.30872      1587.7775      4343.4708    
      5710   477.763       -921.88594      2508.4859      4339.1817    
      5720   449.32795     -921.13533      3256.5043      4335.8468    
      5730   480.51659     -922.01832      3772.6529      4333.743     
      5740   522.80877     -923.20451      3870.055       4333.0523    
      5750   503.78148     -922.69618      3724.9637      4333.816     
      5760   486.21943     -922.23213      3231.7708      4335.9753    
      5770   510.51935     -922.93033      2170.2345      4339.3366    
      5780   474.76709     -921.95774      1108.8234      4343.523     
      5790   414.80598     -920.29098      263.00018      4348.142     
      5800   494.63623     -922.47728     -809.83358      4352.8555    
      5810   580.54952     -924.81972     -1688.2549      4357.2738    
      5820   518.5818      -923.08329     -1951.8325      4361.0791    
      5830   488.25842     -922.24223     -2532.4209      4364.1354    
      5840   544.06067     -923.80031     -3575.3862      4366.2131    
      5850   493.03663     -922.40288     -3856.2291      4366.9599    
      5860   471.7841      -921.8363      -3717.4146      4366.2522    
      5870   525.26037     -923.345       -3354.9736      4364.1379    
      5880   497.65122     -922.60885     -2330.3892      4360.7768    
      5890   458.71387     -921.55268     -1152.6162      4356.545     
      5900   533.40678     -923.64673     -390.77292      4351.8713    
      5910   540.82979     -923.88435      569.41663      4347.0715    
      5920   475.94089     -922.13024      1640.3188      4342.506     
      5930   455.75888     -921.61455      2163.1509      4338.5516    
      5940   442.80521     -921.28214      2627.6658      4335.4226    
      5950   442.31379     -921.27189      3161.7042      4333.2919    
      5960   475.12415     -922.1613       3573.7772      4332.3512    
      5970   514.15079     -923.20514      3829.6866      4332.7558    
      5980   522.3421      -923.39045      3733.7058      4334.5937    
      5990   509.41819     -922.99592      3273.6519      4337.8331    
      6000   519.72616     -923.24897      2406.9003      4342.3029    
      6010   557.93484     -924.28203      1160.1281      4347.6816    
      6020   561.76456     -924.38474     -234.6961       4353.5087    
      6030   503.55639     -922.78762     -1643.2626      4359.2616    
      6040   512.09812     -923.05733     -3272.3356      4364.3922    
      6050   468.34329     -921.87399     -4505.9832      4368.2992    
      6060   422.58651     -920.62018     -5312.6227      4370.5063    
      6070   466.59566     -921.83939     -5704.2049      4370.6983    
      6080   464.40174     -921.75694     -5080.0356      4368.7472    
      6090   422.26663     -920.54412     -3724.7154      4364.8868    
      6100   506.57986     -922.8122      -2374.1764      4359.6098    
      6110   546.18257     -923.80781     -470.38747      4353.4603    
      6120   496.0844      -922.31609      1624.4208      4347.154     
      6130   560.1368      -923.99918      2699.38        4341.4398    
      6140   584.39692     -924.59486      3245.3532      4336.739     
      6150   465.83392     -921.25886      3996.445       4333.281     
      6160   465.61121     -921.21472      4249.7661      4331.3132    
      6170   516.52855     -922.57278      4365.8392      4330.945     
      6180   517.15032     -922.53419      4427.416       4332.2232    
      6190   537.83004     -923.06727      3863.0001      4335.1526    
      6200   540.6714      -923.12415      2837.6229      4339.5332    
      6210   481.70177     -921.47672      1626.9464      4344.9956    
      6220   503.10509     -922.05829     -188.43478      4351.0697    
      6230   521.77493     -922.55526     -1973.3409      4357.0923    
      6240   457.62018     -920.74749     -3073.0413      4362.4044    
      6250   483.01719     -921.41491     -3903.2267      4366.5678    
      6260   544.17366     -923.06583     -4557.3569      4369.2557    
      6270   478.89313     -921.21258     -4530.4617      4370.2343    
      6280   491.12796     -921.5178      -4350.2526      4369.489     
      6290   549.8734      -923.11111     -3862.8034      4367.0944    
      6300   486.97373     -921.33492     -2590.3841      4363.2566    
      6310   491.63329     -921.43371     -1208.9238      4358.4392    
      6320   612.85399     -924.76827     -199.97862      4353.1524    
      6330   579.56673     -923.85559      1142.5712      4347.8108    
      6340   481.81577     -921.19013      2254.0352      4342.9017    
      6350   517.12908     -922.23181      2438.8089      4338.8157    
      6360   505.93171     -921.99705      2840.8555      4335.6629    
      6370   429.55759     -919.9451       3618.5983      4333.5978    
      6380   487.99529     -921.62554      3965.7209      4332.8816    
      6390   559.46722     -923.68299      3961.2691      4333.6513    
      6400   517.08066     -922.6112       3694.0313      4335.9141    
      6410   510.22964     -922.5507       2791.0026      4339.5604    
      6420   509.09914     -922.66606      1514.5004      4344.2667    
      6430   495.93916     -922.45336      15.194403      4349.5608    
      6440   505.88864     -922.89193     -1775.2825      4354.8717    
      6450   458.1511      -921.71993     -2969.2559      4359.552     
      6460   458.4085      -921.85826     -3670.2562      4363.1352    
      6470   501.0986      -923.17558     -3993.2103      4365.3448    
      6480   454.26712     -921.99787     -3730.4604      4366.0603    
      6490   475.30084     -922.68758     -3377.1591      4365.3579    
      6500   554.01804     -924.99195     -2978.0269      4363.3698    
      6510   519.40059     -924.17414     -2177.1499      4360.2622    
      6520   470.61504     -922.95773     -1301.1007      4356.3264    
      6530   493.86381     -923.73336     -574.33297      4351.8866    
      6540   466.77897     -923.0973       282.91938      4347.2312    
      6550   447.94689     -922.66404      1057.532       4342.6757    
      6560   469.86349     -923.34161      1720.6948      4338.5106    
      6570   438.2112      -922.50661      2689.3799      4335.0009    
      6580   432.80581     -922.37         3730.6985      4332.5036    
      6590   498.01837     -924.17277      4133.8919      4331.3873    
      6600   504.23191     -924.33025      3930.453       4331.809     
      6610   470.14791     -923.37102      3542.706       4333.7141    
      6620   465.42865     -923.21734      2782.2816      4336.9572    
      6630   469.8608      -923.29619      1619.2442      4341.2601    
      6640   469.57036     -923.2191       309.45043      4346.2009    
      6650   461.47531     -922.89599     -924.42753      4351.2946    
      6660   465.33125     -922.87011     -1842.2154      4356.0822    
      6670   494.84312     -923.51526     -2428.5907      4360.2114    
      6680   516.54477     -923.90514     -2861.1557      4363.4484    
      6690   520.17593     -923.77315     -3398.0763      4365.611     
      6700   495.84163     -922.85872     -3784.1496      4366.496     
      6710   458.51365     -921.58418     -3777.8775      4365.9569    
      6720   490.44156     -922.21955     -3601.8818      4363.9783    
      6730   501.69439     -922.26299     -2916.9485      4360.6347    
      6740   466.82811     -921.05208     -1651.6612      4356.1866    
      6750   510.14484     -922.03611     -346.90745      4351.0916    
      6760   543.60737     -922.76649      1211.943       4345.8537    
      6770   514.35085     -921.80628      2782.4618      4341.057     
      6780   551.10048     -922.72671      3489.1224      4337.2619    
      6790   558.22169     -922.86677      3796.0184      4334.7571    
      6800   492.39024     -921.01704      4130.7017      4333.6791    
      6810   518.37309     -921.73222      3932.2276      4334.1409    
      6820   555.80728     -922.78234      3294.4177      4336.0826    
      6830   490.34519     -920.98979      2629.7048      4339.2945    
      6840   534.98553     -922.2628       1279.8515      4343.5113    
      6850   542.33649     -922.51565     -113.41401      4348.2564    
      6860   401.2884      -918.6338      -913.00964      4353.0307    
      6870   465.20168     -920.41454     -1847.3981      4357.4996    
      6880   582.45204     -923.66199     -2441.0468      4361.3204    
      6890   529.47034     -922.20754     -2280.2283      4364.2773    
      6900   561.50934     -923.14543     -2613.6213      4366.3748    
      6910   638.82011     -925.4021      -3345.3543      4367.4817    
      6920   510.89225     -922.01614     -3420.4175      4367.3477    
      6930   442.80836     -920.27139     -3399.4222      4365.9082    
      6940   518.81161     -922.5231      -3422.0892      4363.1525    
      6950   502.05292     -922.20333     -2588.7954      4359.0977    
      6960   474.55372     -921.57278     -1308.3347      4354.0364    
      6970   488.4105      -922.07665     -79.332423      4348.4325    
      6980   456.3523      -921.2826       1297.4909      4342.7576    
      6990   453.51874     -921.26917      2700.0489      4337.528     
      7000   506.39892     -922.78595      3814.8597      4333.2649    
      7010   538.35603     -923.72721      4665.5307      4330.3988    
      7020   546.10348     -924.02451      5026.778       4329.2529    
      7030   506.66301     -923.03709      4854.8105      4329.9826    
      7040   469.05131     -922.09767      4145.856       4332.5452    
      7050   519.19087     -923.59337      2969.8895      4336.7014    
      7060   529.97004     -924.01051      1528.8727      4342.0375    
      7070   439.6836      -921.60956      212.71287      4348.0394    
      7080   449.6722      -921.9602      -1150.3549      4354.2095    
      7090   514.01513     -923.80439     -2438.4399      4360.0328    
      7100   493.68977     -923.29318     -3304.5264      4365.0248    
      7110   499.93275     -923.52296     -4187.597       4368.8203    
      7120   503.03998     -923.67158     -4937.7831      4371.0672    
      7130   458.04737     -922.48559     -5301.3681      4371.461     
      7140   430.01262     -921.75595     -5225.3067      4369.8375    
      7150   434.27428     -921.90028     -4550.1022      4366.2058    
      7160   438.55409     -922.01163     -3197.0484      4360.8058    
      7170   498.22385     -923.62822     -1430.2349      4354.1274    
      7180   516.08349     -924.05321      875.70172      4346.8432    
      7190   495.63357     -923.39742      2990.0964      4339.7993    
      7200   543.77225     -924.63215      4177.8636      4333.7738    
      7210   528.28396     -924.09327      4898.5494      4329.2418    
      7220   452.17403     -921.87401      5474.3194      4326.504     
      7230   479.56289     -922.50701      5236.3058      4325.77      
      7240   482.72523     -922.41568      4850.7011      4327.0066    
      7250   461.91544     -921.62495      4380.9836      4330.0998    
      7260   533.0655      -923.33938      3512.2113      4334.8948    
      7270   551.39816     -923.54666      2454.3592      4341.1055    
      7280   504.52006     -921.97539      960.37929      4348.3513    
      7290   520.10125     -922.1638      -1183.9002      4356.0741    
      7300   517.44691     -921.85486     -3012.4899      4363.496     
      7310   460.29063     -920.06438     -4246.1271      4369.9157    
      7320   512.65688     -921.33341     -5522.9671      4374.8096    
      7330   546.45731     -922.09443     -6363.7442      4377.6724    
      7340   505.16404     -920.81812     -6355.0651      4378.1549    
      7350   501.63287     -920.62761     -5753.2828      4376.2109    
      7360   532.04591     -921.39624     -4696.491       4372.0328    
      7370   568.32277     -922.35094     -3140.6103      4366.0015    
      7380   575.40949     -922.53226     -1157.9965      4358.6899    
      7390   547.42416     -921.77228      1150.5685      4350.8448    
      7400   569.7643      -922.4347       2901.0111      4343.3089    
      7410   587.56265     -923.0123       3955.1179      4336.7493    
      7420   539.9098      -921.81035      4654.5871      4331.5878    
      7430   520.46991     -921.41177      5041.4496      4328.1042    
      7440   479.61823     -920.41954      5373.4112      4326.4778    
      7450   438.51396     -919.39262      5304.7828      4326.8476    
      7460   522.97452     -921.84111      4672.1688      4329.2188    
      7470   573.23056     -923.36778      3852.0141      4333.4029    
      7480   493.22523     -921.29126      2914.7924      4339.1316    
      7490   501.92253     -921.66732      1112.1641      4346.0547    
      7500   525.71786     -922.45872     -944.10449      4353.5301    
      7510   464.1209      -920.8581      -2233.0502      4360.82      
      7520   508.39908     -922.17669     -3484.075       4367.3934    
      7530   582.4469      -924.34011     -4845.8531      4372.7452    
      7540   522.58139     -922.81185     -5512.7119      4376.3544    
      7550   485.038       -921.90016     -5790.988       4377.913     
      7560   517.17461     -922.92361     -5910.1926      4377.2661    
      7570   503.27094     -922.66933     -5294.9055      4374.3537    
      7580   518.73536     -923.22913     -4177.9292      4369.3691    
      7590   533.72867     -923.78322     -2808.1878      4362.7063    
      7600   478.55701     -922.37343     -1046.7465      4354.8805    
      7610   476.03948     -922.39639      528.36322      4346.5306    
      7620   461.72213     -922.0612       2054.2185      4338.259     
      7630   407.56594     -920.57472      3754.7744      4330.6544    
      7640   460.53899     -922.02615      5201.4909      4324.3515    
      7650   514.30595     -923.48121      6345.1073      4319.9091    
      7660   461.98914     -921.99277      7399.0655      4317.7913    
      7670   481.48261     -922.50479      7685.2019      4318.404     
      7680   557.76879     -924.60285      7115.5048      4321.9023    
      7690   551.6092      -924.44443      5913.9312      4328.139     
      7700   522.59506     -923.68166      3724.5096      4336.7064    
      7710   527.56957     -923.86748      746.30491      4346.8313    
      7720   495.54382     -923.01584     -1961.2118      4357.4486    
      7730   433.78103     -921.30967     -4175.4204      4367.5329    
      7740   450.4813      -921.74752     -6354.2156      4376.1927    
      7750   485.85051     -922.67932     -8067.5143      4382.5645    
      7760   467.20918     -922.1088      -8653.637       4385.9585    
      7770   460.71388     -921.88033     -8259.5769      4386.084     
      7780   505.53353     -923.07759     -7350.1276      4383.0276    
      7790   521.46588     -923.48014     -6104.8735      4377.0945    
      7800   480.69228     -922.31878     -4210.8742      4368.7497    
      7810   486.12601     -922.43257     -1899.7802      4358.6941    
      7820   528.22356     -923.5447       674.67151      4347.8002    
      7830   499.18667     -922.66964      3309.3478      4337.0409    
      7840   484.68774     -922.19274      5359.9893      4327.3946    
      7850   488.10756     -922.20437      6881.3277      4319.6454    
      7860   482.38635     -921.95877      8174.0028      4314.3901    
      7870   514.38406     -922.76681      8894.1243      4312.1224    
      7880   540.48234     -923.43215      8950.2703      4313.1448    
      7890   510.37552     -922.56894      8261.6137      4317.5266    
      7900   521.73822     -922.88258      6256.8388      4325.0435    
      7910   507.17792     -922.4783       3694.1203      4335.0307    
      7920   488.98591     -921.96227      876.4773       4346.5735    
      7930   507.5121      -922.44025     -2196.5748      4358.6255    
      7940   504.16052     -922.28567     -4980.3968      4370.031     
      7950   474.38609     -921.38059     -6978.1277      4379.7116    
      7960   481.16903     -921.47421     -8179.504       4386.8557    
      7970   516.84239     -922.34931     -8783.9286      4390.9435    
      7980   529.1098      -922.5597      -8846.7761      4391.6932    
      7990   529.62951     -922.43599     -8527.1764      4389.0337    
      8000   502.92467     -921.54378     -7533.3162      4383.0674    
      8010   482.17092     -920.7912      -5439.0856      4374.1761    
      8020   529.44485     -921.8711      -2690.3565      4363.1399    
      8030   567.12525     -922.62681      302.34283      4350.9997    
      8040   556.49911     -922.03766      3208.1705      4338.888     
      8050   552.83563     -921.6694       5755.85        4327.8999    
      8060   553.65144     -921.45795      7844.5464      4318.9949    
      8070   531.18131     -920.64574      9377.5402      4312.9561    
      8080   526.43878     -920.37361      9971.8473      4310.354     
      8090   564.94778     -921.34566      9445.2615      4311.4263    
      8100   601.58928     -922.32399      8311.404       4316.0326    
      8110   548.885       -920.88512      6641.2221      4323.7977    
      8120   520.64496     -920.16113      4030.5726      4334.1233    
      8130   486.16754     -919.25462      1063.1337      4346.0841    
      8140   496.27614     -919.56019     -1832.6571      4358.5874    
      8150   562.22889     -921.4037      -4422.003       4370.5352    
      8160   593.54569     -922.31375     -6272.688       4380.9307    
      8170   578.34218     -921.99336     -7593.4833      4389.021     
      8180   547.80087     -921.29783     -8725.8645      4394.2497    
      8190   567.85043     -922.06251     -9541.3518      4396.146     
      8200   557.26548     -922.03606     -9443.671       4394.3896    
      8210   521.26766     -921.33309     -8529.8076      4388.9932    
      8220   489.04531     -920.72084     -6857.3993      4380.3028    
      8230   491.65984     -921.03793     -4599.395       4368.9616    
      8240   512.92748     -921.83794     -1792.2724      4355.8449    
      8250   491.07034     -921.38932      1660.608       4342.0416    
      8260   503.77628     -921.84483      5135.3387      4328.8496    
      8270   544.3184      -923.05194      7923.4622      4317.5482    
      8280   523.16324     -922.54756      10113.157      4309.1789    
      8290   500.24142     -921.99841      11155.822      4304.5279    
      8300   547.74255     -923.43147      10904.799      4303.9751    
      8310   539.07787     -923.34773      10013.699      4307.4619    
      8320   455.50467     -921.18709      8606.5143      4314.6911    
      8330   483.84244     -922.1126       5929.0211      4325.1428    
      8340   530.50319     -923.52917      2614.7271      4337.8711    
      8350   480.07889     -922.22027     -546.80144      4351.675     
      8360   471.73758     -922.04028     -3690.7268      4365.3483    
      8370   478.43828     -922.2391      -6471.4485      4377.6895    
      8380   487.76489     -922.49018     -8633.1148      4387.6136    
      8390   512.736       -923.17996     -10131.449      4394.259     
      8400   506.57264     -923.02995     -10743.478      4397.0313    
      8410   477.54071     -922.26988     -10450.639      4395.6817    
      8420   484.47499     -922.5261      -9411.1707      4390.3171    
      8430   466.64351     -922.09626     -7374.3965      4381.3652    
      8440   454.16633     -921.79196     -4509.5684      4369.6297    
      8450   531.98713     -923.96433     -1346.9832      4356.2158    
      8460   539.62938     -924.16624      2188.4293      4342.3568    
      8470   497.54567     -922.97611      5486.8412      4329.378     
      8480   534.18441     -923.97176      7651.0467      4318.4777    
      8490   494.87362     -922.87325      9058.8574      4310.4569    
      8500   417.21136     -920.71245      9997.8983      4305.8232    
      8510   478.97246     -922.42291      10072.423      4304.8862    
      8520   510.50569     -923.29743      9442.4518      4307.6705    
      8530   456.42879     -921.80537      8153.3052      4313.947     
      8540   473.08718     -922.27041      6013.4415      4323.2394    
      8550   490.4272      -922.71998      3419.1379      4334.776     
      8560   484.77222     -922.494        664.92117      4347.6037    
      8570   525.18335     -923.50512     -2314.4936      4360.6773    
      8580   507.75705     -922.8745      -4871.9116      4372.8804    
      8590   481.18922     -921.97254     -6975.2049      4383.219     
      8600   551.53191     -923.74053     -8686.2417      4390.8697    
      8610   566.7564      -923.97688     -9648.7412      4395.1786    
      8620   502.70807     -922.05697     -9909.3338      4395.7773    
      8630   522.12729     -922.48885     -9877.7551      4392.5597    
      8640   457.47841     -920.5951      -8598.7395      4385.6046    
      8650   427.86815     -919.6732      -6161.5272      4375.4366    
      8660   505.03919     -921.65708     -3000.9575      4363.0185    
      8670   531.35128     -922.16413      550.87347      4349.584     
      8680   552.31127     -922.50741      3750.1489      4336.4721    
      8690   579.39762     -923.03085      6352.4169      4324.8744    
      8700   504.24679     -920.7559       8582.2078      4315.7508    
      8710   498.37053     -920.44449      9834.3141      4309.8707    
      8720   580.13942     -922.59176      10099.762      4307.6582    
      8730   538.03523     -921.3522       9817.6067      4309.1934    
      8740   499.14972     -920.25521      8771.6906      4314.3434    
      8750   571.07671     -922.26155      6718.8429      4322.6987    
      8760   548.00704     -921.65423      4360.9839      4333.5174    
      8770   499.79606     -920.35903      1672.1484      4345.9122    
      8780   570.76513     -922.36917     -1476.2323      4358.8612    
      8790   579.83116     -922.6766      -4223.1494      4371.196     
      8800   535.34523     -921.52229     -6490.2107      4381.8608    
      8810   549.87127     -922.03674     -8601.3208      4389.9683    
      8820   509.7819      -921.0644      -9932.3506      4394.7371    
      8830   474.33445     -920.23344     -10366.137      4395.6726    
      8840   502.29629     -921.17851     -9863.5627      4392.6438    
      8850   525.96286     -922.03044     -8321.0353      4385.8971    
      8860   504.12492     -921.62564     -5857.7655      4376.0796    
      8870   495.51181     -921.56877     -2981.457       4364.171     
      8880   498.91765     -921.81055      2.2226882      4351.3011    
      8890   527.44936     -922.72204      2860.0539      4338.6137    
      8900   530.31704     -922.90581      5512.8892      4327.1797    
      8910   504.72385     -922.28399      7640.1993      4317.9512    
      8920   500.1652      -922.23383      9102.6352      4311.6725    
      8930   516.21203     -922.75845      9714.3345      4308.8246    
      8940   501.76952     -922.44628      9595.5003      4309.5859    
      8950   493.74757     -922.31374      8827.2866      4313.8739    
      8960   545.46671     -923.8483       7264.8823      4321.3681    
      8970   562.90536     -924.44704      4955.1572      4331.4705    
      8980   517.57039     -923.30222      1999.9759      4343.309     
      8990   473.67719     -922.16242     -1460.1628      4355.7623    
      9000   447.61942     -921.46466     -4657.0732      4367.5422    
      9010   435.42228     -921.10739     -7176.3406      4377.4394    
      9020   415.64374     -920.50653     -8599.9928      4384.5183    
      9030   456.57981     -921.57488     -9244.8591      4388.2431    
      9040   520.90435     -923.28995     -9028.3789      4388.409     
      9050   515.97718     -923.10453     -7733.0243      4385.1588    
      9060   486.5238      -922.25768     -5815.1985      4379.0317    
      9070   550.74735     -924.0189      -4004.8113      4370.7878    
      9080   573.05688     -924.62943     -1838.8113      4361.1826    
      9090   530.10835     -923.45244      521.94699      4351.0609    
      9100   511.43542     -922.95795      2451.5903      4341.3034    
      9110   487.36162     -922.30849      3970.3903      4332.6282    
      9120   468.82121     -921.80192      5145.5203      4325.5785    
      9130   480.95011     -922.13771      5975.2435      4320.5566    
      9140   468.19843     -921.77575      6555.519       4317.8329    
      9150   455.42149     -921.40618      6931.5119      4317.5804    
      9160   479.94518     -922.0629       6925.7594      4319.8943    
      9170   512.33134     -922.93214      6243.3604      4324.731     
      9180   537.09309     -923.59452      4541.998       4331.7918    
      9190   517.02745     -923.02067      2338.9525      4340.4418    
      9200   472.0464      -921.74938     -74.308623      4349.8478    
      9210   481.50569     -921.96618     -2336.9916      4359.1047    
      9220   505.34021     -922.55675     -4112.9737      4367.3667    
      9230   480.28438     -921.77516     -5219.7946      4373.9763    
      9240   519.2834      -922.7662      -6035.1637      4378.5143    
      9250   550.26387     -923.53222     -6341.5866      4380.7065    
      9260   535.83418     -923.06044     -6248.0268      4380.4652    
      9270   534.66944     -922.98258     -5940.33        4377.8599    
      9280   519.22876     -922.52876     -5130.0381      4373.0599    
      9290   454.46388     -920.70519     -3588.5045      4366.4272    
      9300   516.66815     -922.39002     -2026.314       4358.557     
      9310   538.20892     -922.92261     -152.45749      4350.0801    
      9320   431.5541      -919.88545      1983.033       4341.7169    
      9330   479.36947     -921.11127      3421.5582      4334.2272    
      9340   563.46511     -923.29767      4890.7107      4328.1555    
      9350   486.57233     -921.01106      6630.4769      4324.0288    
      9360   527.68586     -922.01771      7160.5256      4322.3983    
      9370   598.10686     -923.83476      6723.2408      4323.4282    
      9380   512.72548     -921.3662       6172.893       4326.9483    
      9390   519.54891     -921.49043      4672.4741      4332.6863    
      9400   559.79727     -922.54232      2599.9586      4340.073     
      9410   486.98546     -920.46067      685.24109      4348.3424    
      9420   522.87099     -921.39736     -1424.6018      4356.7492    
      9430   564.33345     -922.48113     -3132.2209      4364.5174    
      9440   496.21283     -920.53771     -4146.3413      4371.0176    
      9450   551.73187     -922.04463     -5216.1772      4375.8485    
      9460   598.03529     -923.32872     -5914.2486      4378.6394    
      9470   487.67412     -920.30745     -5649.6442      4379.1753    
      9480   514.26169     -921.10771     -5465.3952      4377.5507    
      9490   605.97732     -923.76084     -5418.8453      4373.8707    
      9500   498.31738     -920.92634     -4361.9394      4368.2355    
      9510   439.29494     -919.43272     -2700.7718      4361.0681    
      9520   493.14299     -921.06019     -854.70771      4353.0121    
      9530   494.03111     -921.20971      1433.1804      4344.7936    
      9540   517.53395     -921.9828       3487.6441      4337.2522    
      9550   593.6162      -924.25866      4807.5397      4331.1224    
      9560   554.56333     -923.39826      5917.6449      4326.8879    
      9570   485.52548     -921.71592      6450.1737      4324.9098    
      9580   500.08494     -922.34781      6090.7108      4325.3375    
      9590   520.25764     -923.14378      5170.9916      4328.0134    
      9600   485.21327     -922.38966      4012.9394      4332.5793    
      9610   486.16197     -922.60196      2532.8928      4338.5774    
      9620   502.61811     -923.21689      931.45075      4345.4493    
      9630   492.46173     -923.06708     -812.92951      4352.5829    
      9640   455.94296     -922.14663     -2343.9771      4359.3322    
      9650   466.76562     -922.50394     -3629.28        4365.1201    
      9660   512.98185     -923.82699     -4567.0844      4369.4733    
      9670   501.63871     -923.55313     -4979.1938      4372.0569    
      9680   447.10187     -922.07181     -5017.8372      4372.7318    
      9690   455.41151     -922.31976     -5114.6332      4371.4894    
      9700   475.52207     -922.87733     -4659.9445      4368.3452    
      9710   484.48932     -923.11555     -3424.6371      4363.5081    
      9720   481.07684     -922.99746     -1641.1212      4357.4684    
      9730   511.95545     -923.82169      64.645567      4350.8983    
      9740   510.47691     -923.74268      1508.5804      4344.4447    
      9750   487.57716     -923.06955      2853.7428      4338.6536    
      9760   506.21971     -923.54773      3908.8944      4334.0094    
      9770   505.76496     -923.49804      4423.572       4330.8771    
      9780   459.76587     -922.18619      4378.823       4329.4255    
      9790   451.26523     -921.90709      3939.776       4329.6164    
      9800   453.24624     -921.89633      3759.5107      4331.292     
      9810   467.34674     -922.19872      3506.1141      4334.358     
      9820   514.19131     -923.38929      2655.5556      4338.6878    
      9830   506.89892     -923.066        1540.4501      4343.966     
      9840   484.45729     -922.32336      355.91444      4349.7752    
      9850   530.94322     -923.48477     -937.57065      4355.6608    
      9860   535.65127     -923.48119     -1900.8594      4361.1534    
      9870   534.09297     -923.32218     -3034.1894      4365.8703    
      9880   533.44919     -923.20521     -4298.922       4369.389     
      9890   491.45278     -921.95776     -5114.9478      4371.2569    
      9900   439.90578     -920.44845     -5246.3817      4371.1882    
      9910   465.43722     -921.06217     -4868.6173      4369.1436    
      9920   486.86025     -921.5287      -3741.2663      4365.3007    
      9930   484.00467     -921.29767     -2161.7818      4360.1007    
      9940   530.22773     -922.40419     -563.524        4354.1454    
      9950   572.80341     -923.39004      1055.9083      4348.0508    
      9960   546.56455     -922.48251      2644.6922      4342.4279    
      9970   535.11063     -922.0135       3728.383       4337.8493    
      9980   547.22612     -922.21444      4283.7469      4334.7055    
      9990   528.42707     -921.57544      4569.4973      4333.197     
     10000   541.08656     -921.82795      4246.7571      4333.3981    
     10010   567.84731     -922.48895      3698.5537      4335.187     
     10020   495.41397     -920.41601      3206.7802      4338.3586    
     10030   490.35994     -920.21748      2121.5558      4342.6966    
     10040   563.60389     -922.17031      586.26137      4347.7905    
     10050   533.22075     -921.23809     -322.82632      4353.0988    
     10060   496.69923     -920.13788     -1151.274       4358.2566    
     10070   582.70017     -922.42231     -2532.576       4362.9261    
     10080   561.98004     -921.73964     -3450.7118      4366.6243    
     10090   485.04256     -919.52042     -3737.1818      4369.0112    
     10100   534.35015     -920.80413     -3924.9079      4369.9645    
     10110   591.382       -922.29859     -3645.4042      4369.4373    
     10120   549.9235      -921.09245     -2900.8702      4367.5492    
     10130   549.42403     -921.06212     -2300.6303      4364.5715    
     10140   563.03295     -921.45262     -1557.1493      4360.7558    
     10150   555.4106      -921.29059     -670.40139      4356.3907    
     10160   556.68718     -921.41392      292.35699      4351.8148    
     10170   555.17873     -921.50032      1315.3679      4347.3932    
     10180   546.96587     -921.43432      2170.8894      4343.5036    
     10190   569.75141     -922.27717      2517.1503      4340.4464    
     10200   499.75324     -920.56617      2847.021       4338.3674    
     10210   464.93508     -919.80271      2865.0624      4337.3639    
     10220   525.49265     -921.6834       2928.2961      4337.451     
     10230   533.68587     -922.12283      2979.8296      4338.645     
     10240   525.33522     -922.10455      2578.9778      4340.9464    
     10250   547.81826     -922.95247      1641.135       4344.1952    
     10260   504.63518     -921.97134      736.69848      4348.0573    
     10270   473.73699     -921.29531     -199.07504      4352.1864    
     10280   508.35047     -922.41335     -1277.6415      4356.2237    
     10290   520.38532     -922.89936     -2179.3373      4359.7705    
     10300   495.10956     -922.3363      -2636.9859      4362.4971    
     10310   526.34174     -923.33913     -2931.3388      4364.2195    
     10320   526.24541     -923.47955     -3131.5147      4364.8288    
     10330   493.37709     -922.70888     -3211.0988      4364.2531    
     10340   465.94215     -922.07006     -2909.1642      4362.4763    
     10350   481.80811     -922.61389     -2170.3423      4359.6213    
     10360   500.89469     -923.23496     -1080.7108      4355.9749    
     10370   503.69361     -923.39961     -172.00371      4351.9349    
     10380   482.98892     -922.90344      549.32786      4347.8504    
     10390   489.00945     -923.13982      1068.3737      4343.9908    
     10400   474.11362     -922.78544      1578.2068      4340.5588    
     10410   436.91717     -921.78999      2039.2829      4337.7404    
[...]
     47810   493.53437     -922.22849     -2813.0302      4362.6911    
     47820   508.76048     -922.48737     -1295.4747      4356.3049    
     47830   530.98224     -922.90135      444.29428      4349.344     
     47840   527.68135     -922.58452      2170.9019      4342.4578    
     47850   520.18896     -922.14574      3552.2974      4336.2923    
     47860   507.48678     -921.5621       4690.3132      4331.3842    
     47870   512.3424      -921.47105      5461.2528      4328.1726    
     47880   524.21999     -921.58384      5628.185       4326.9628    
     47890   527.77724     -921.48703      5358.4838      4327.8539    
     47900   531.88168     -921.43549      4819.5544      4330.7849    
     47910   548.58337     -921.76347      4025.8018      4335.5907    
     47920   553.98797     -921.81077      2847.2129      4342.0043    
     47930   566.4692      -922.09028      1101.894       4349.6042    
     47940   556.37412     -921.77384     -958.27126      4357.761     
     47950   551.95125     -921.64412     -3170.1629      4365.696     
     47960   504.95387     -920.34757     -4896.4879      4372.5728    
     47970   495.98366     -920.11167     -6085.3238      4377.7015    
     47980   532.57007     -921.1507      -6864.9937      4380.5785    
     47990   524.00464     -920.96015     -6774.4029      4380.8793    
     48000   506.04902     -920.5275      -5900.5787      4378.5939    
     48010   563.13204     -922.20414     -4844.597       4374.0013    
     48020   559.6496      -922.2363      -3487.5596      4367.4883    
     48030   529.0944      -921.54214     -1759.0532      4359.5596    
     48040   543.64746     -922.11604      108.49555      4350.8585    
     48050   546.7012      -922.38922      2084.0274      4342.0895    
     48060   520.47446     -921.85581      4120.183       4334.004     
     48070   510.38839     -921.7621       5616.7759      4327.3586    
     48080   518.04187     -922.15928      6437.7455      4322.7266    
     48090   501.09072     -921.86419      6885.2594      4320.4509    
     48100   504.39066     -922.11861      6827.5246      4320.7253    
     48110   505.52761     -922.30164      6194.74        4323.5638    
     48120   498.9387      -922.2509       5044.1229      4328.7767    
     48130   520.80696     -922.975        3305.4102      4335.9719    
     48140   506.04466     -922.66394      1274.1062      4344.5417    
     48150   469.95562     -921.72767     -886.47334      4353.7447    
     48160   490.28592     -922.32513     -3197.9064      4362.7617    
     48170   494.88865     -922.46384     -5099.6563      4370.7163    
     48180   461.5186      -921.53283     -6145.1999      4376.8668    
     48190   501.03239     -922.61949     -6807.8341      4380.7524    
     48200   543.78174     -923.80661     -6980.2035      4382.0816    
     48210   524.88921     -923.3101      -6504.4134      4380.7551    
     48220   518.12054     -923.17416     -5687.0488      4376.9106    
     48230   507.06551     -922.93209     -4579.084       4370.8354    
     48240   468.07839     -921.90758     -2985.4603      4362.9457    
     48250   484.56107     -922.40525     -1089.5484      4353.8315    
     48260   500.68224     -922.87297      1019.876       4344.209     
     48270   473.70098     -922.12675      3228.0871      4334.8752    
     48280   452.69968     -921.52185      5304.5027      4326.6615    
     48290   498.57847     -922.75632      6836.9413      4320.3421    
     48300   510.83927     -923.05481      7876.6111      4316.5133    
     48310   499.1819      -922.70587      8109.3735      4315.5763    
     48320   503.01025     -922.80398      7429.5158      4317.6476    
     48330   485.29145     -922.31143      6351.7814      4322.5364    
     48340   491.08652     -922.47119      4788.1098      4329.8792    
     48350   511.92206     -923.03758      2679.4679      4339.1287    
     48360   523.68445     -923.34225      316.87892      4349.5304    
     48370   519.08093     -923.18682     -2057.4299      4360.2093    
     48380   506.90788     -922.81604     -4347.5043      4370.2587    
     48390   492.22432     -922.37029     -6466.827       4378.7811    
     48400   474.59816     -921.83751     -8103.705       4384.9355    
     48410   475.63414     -921.81984     -8925.2801      4388.0582    
     48420   500.50017     -922.4654      -8812.202       4387.7917    
     48430   506.27418     -922.58661     -7703.5041      4384.1462    
     48440   480.67129     -921.83771     -5986.9432      4377.5107    
     48450   494.19981     -922.16131     -4151.162       4368.514     
     48460   517.15363     -922.71823     -1888.1069      4357.8675    
     48470   491.60114     -921.89963      971.14421      4346.4436    
     48480   507.38789     -922.19745      3710.148       4335.305     
     48490   544.81993     -923.06517      6016.0597      4325.4801    
     48500   520.58191     -922.21728      7984.4068      4317.8435    
     48510   512.09418     -921.82355      9243.3343      4313.1259    
     48520   549.71815     -922.72487      9466.6096      4311.8003    
     48530   534.40582     -922.18469      8848.7942      4313.9868    
     48540   501.7041      -921.19517      7212.1795      4319.4833    
     48550   502.20802     -921.13338      4994.3517      4327.737     
     48560   508.0728      -921.20613      2891.2251      4337.9772    
     48570   537.68905     -921.92362      688.25341      4349.429     
     48580   573.92322     -922.81828     -1896.7457      4361.2609    
     48590   533.09511     -921.58446     -4495.0412      4372.4953    
     48600   515.46231     -921.0094      -6843.0863      4382.1233    
     48610   528.41529     -921.29186     -8501.4308      4389.2243    
     48620   525.0273      -921.14397     -9351.4033      4393.1224    
     48630   517.95388     -920.9253      -9496.7864      4393.4511    
     48640   542.658       -921.62405     -8944.3522      4390.1274    
     48650   535.55971     -921.47759     -7392.8302      4383.3615    
     48660   492.04898     -920.3376      -4891.0193      4373.7494    
     48670   530.91753     -921.48527     -2233.1861      4362.2279    
     48680   564.3714      -922.49163      602.66461      4349.8268    
     48690   533.79622     -921.73969      3468.8739      4337.6257    
     48700   532.86381     -921.83018      5944.2792      4326.6951    
     48710   561.66131     -922.79124      7958.4557      4317.9597    
     48720   535.93805     -922.29761      9410.8989      4312.1653    
     48730   491.1568      -921.30504      9779.073       4309.8338    
     48740   503.19624     -921.90776      8972.9899      4311.107     
     48750   512.51454     -922.45271      7607.9311      4315.7269    
     48760   479.82059     -921.81271      6034.2441      4323.2229    
     48770   480.29484     -922.05138      3923.5297      4333.0224    
     48780   500.83136     -922.80712      1265.205       4344.3578    
     48790   496.03754     -922.81594     -1557.9788      4356.2488    
     48800   488.24432     -922.69761     -4079.2703      4367.6353    
     48810   488.37616     -922.76571     -6170.0672      4377.5421    
     48820   488.02616     -922.79944     -7842.5607      4385.1426    
     48830   499.93732     -923.17004     -9018.1372      4389.7689    
     48840   494.60483     -923.07131     -9288.9149      4390.9615    
     48850   481.36725     -922.76186     -8618.9559      4388.6033    
     48860   498.54236     -923.30341     -7277.4574      4382.94      
     48870   496.88134     -923.32206     -5404.7261      4374.492     
     48880   477.13578     -922.82698     -3234.5799      4363.9838    
     48890   476.57926     -922.84142     -897.33371      4352.2535    
     48900   469.38149     -922.63846      1881.437       4340.2141    
     48910   466.85531     -922.52998      4679.5137      4328.9049    
     48920   476.04006     -922.72006      6882.1506      4319.3509    
     48930   470.40391     -922.48341      8520.8918      4312.3659    
     48940   499.02295     -923.19798      9535.6127      4308.5445    
     48950   515.46721     -923.58775      9743.1303      4308.2496    
     48960   488.83131     -922.80512      9179.1055      4311.5629    
     48970   491.73102     -922.85734      7604.5609      4318.2782    
     48980   500.94341     -923.07913      5145.3103      4327.8316    
     48990   491.75991     -922.77455      2540.6858      4339.3497    
     49000   501.50353     -922.97124     -346.00942      4351.8554    
     49010   503.9917      -922.93761     -3303.6208      4364.265     
     49020   469.19145     -921.84432     -5887.5906      4375.4565    
     49030   483.76261     -922.10214     -8030.7252      4384.4199    
     49040   501.47191     -922.4295      -9309.1311      4390.329     
     49050   493.17545     -922.03927     -9615.7875      4392.6813    
     49060   511.23932     -922.39129     -9185.7724      4391.3461    
     49070   520.0649      -922.49291     -8042.3814      4386.4995    
     49080   517.56008     -922.28898     -6252.0668      4378.5999    
     49090   516.26783     -922.11904     -4022.3191      4368.3522    
     49100   503.59305     -921.62193     -1428.2912      4356.6321    
     49110   494.52153     -921.20539      1409.6437      4344.4415    
     49120   523.37352     -921.81421      4208.3308      4332.851     
     49130   551.91612     -922.39968      6800.4426      4322.9028    
     49140   551.45734     -922.20001      8811.6056      4315.534     
     49150   545.49743     -921.89147      9840.9677      4311.458     
     49160   559.10956     -922.17833      9556.3902      4311.0193    
     49170   513.13091     -920.85798      8509.6699      4314.1185    
     49180   494.07734     -920.31269      6869.8504      4320.3663    
     49190   533.65373     -921.39799      4811.0635      4329.1624    
     49200   527.2277      -921.2071       2669.2265      4339.757     
     49210   517.95782     -920.93744      223.01478      4351.3394    
     49220   558.31674     -922.04281     -2518.6991      4362.9812    
     49230   566.57665     -922.27218     -4913.7628      4373.6564    
     49240   540.77645     -921.59496     -6842.8805      4382.4427    
     49250   515.89105     -920.98603     -8310.7004      4388.5915    
     49260   519.23592     -921.21779     -9084.2186      4391.5421    
     49270   521.29242     -921.49098     -8805.2638      4391.0219    
     49280   522.65551     -921.83506     -7939.1195      4387.1392    
     49290   521.83455     -922.19998     -6588.9546      4380.2531    
     49300   525.36425     -922.73738     -4679.3215      4370.9184    
     49310   498.52031     -922.41656     -2254.8907      4359.8974    
     49320   469.2076      -921.93518      413.02583      4348.129     
     49330   479.36274     -922.45278      2999.2388      4336.6255    
     49340   499.69003     -923.18383      5321.5781      4326.3517    
     49350   492.49498     -923.10603      7231.6747      4318.151     
     49360   474.39213     -922.69064      8622.6088      4312.704     
     49370   492.98257     -923.28415      9028.9727      4310.4749    
     49380   489.61627     -923.27028      8663.6553      4311.5931    
     49390   468.52226     -922.76384      7682.951       4315.9057    
     49400   470.18957     -922.87893      6052.3106      4323.0358    
     49410   493.88969     -923.59102      3867.0875      4332.3739    
     49420   482.26221     -923.3027       1475.1098      4343.1103    
     49430   466.93703     -922.88499     -942.66237      4354.348     
     49440   493.63588     -923.60539     -3447.1592      4365.1635    
     49450   505.14056     -923.88564     -5697.8944      4374.6105    
     49460   479.53394     -923.1317      -7429.2123      4381.8369    
     49470   450.33152     -922.27614     -8550.5512      4386.1847    
     49480   440.63284     -921.95452     -8762.3482      4387.2507    
     49490   471.65031     -922.75232     -8108.5905      4384.9786    
     49500   503.87685     -923.57175     -6770.7554      4379.6505    
     49510   515.34735     -923.81177     -4903.017       4371.8158    
     49520   507.35949     -923.50981     -2634.3066      4362.2239    
     49530   489.0557      -922.91266     -323.38114      4351.7561    
     49540   464.31423     -922.11766      1829.2267      4341.2969    
     49550   450.69073     -921.60416      3897.5158      4331.6602    
     49560   471.93163     -922.02673      5802.4332      4323.6011    
     49570   511.83091     -922.94408      7445.3452      4317.7999    
     49580   504.65846     -922.55826      8528.2182      4314.8206    
     49590   511.98133     -922.6028       8666.0662      4315.0145    
     49600   555.01703     -923.66305      7825.4178      4318.3969    
     49610   539.19261     -923.12477      6487.8479      4324.648     
     49620   517.98313     -922.47248      4439.8739      4333.2428    
     49630   507.56427     -922.12656      1788.7703      4343.4076    
     49640   496.67872     -921.75815     -909.87019      4354.1549    
     49650   496.2752      -921.66568     -3338.065       4364.4705    
     49660   508.52218     -921.91347     -5494.0146      4373.4264    
     49670   492.95451     -921.38835     -6957.7472      4380.2208    
     49680   487.9646      -921.16495     -7795.6408      4384.3048    
     49690   492.58736     -921.21484     -7939.1839      4385.3851    
     49700   517.86161     -921.84825     -7348.3232      4383.4432    
     49710   544.13999     -922.52511     -6110.198       4378.7467    
     49720   540.28001     -922.38802     -4378.5244      4371.809     
     49730   537.10921     -922.28945     -2356.8883      4363.3242    
     49740   542.16466     -922.4317      -300.72628      4354.0835    
     49750   535.01052     -922.24867      1528.0897      4344.8709    
     49760   503.23807     -921.39051      3402.0148      4336.3834    
     49770   511.29536     -921.64203      5210.2717      4329.3054    
     49780   534.25562     -922.32385      6406.288       4324.2633    
     49790   531.66216     -922.33211      6923.9901      4321.6627    
     49800   504.01368     -921.68374      6882.4687      4321.6608    
     49810   500.3398      -921.7304       6178.9411      4324.2017    
     49820   532.40536     -922.8141       4838.0635      4328.9938    
     49830   496.52312     -922.04963      3281.7974      4335.5296    
     49840   460.80883     -921.29337      1395.7683      4343.2061    
     49850   476.64964     -921.96349     -701.59282      4351.3075    
     49860   493.30588     -922.65871     -2312.2654      4359.0643    
     49870   493.14209     -922.88555     -3492.1747      4365.8656    
     49880   506.12039     -923.47196     -4608.4006      4371.2582    
     49890   521.04762     -924.11523     -5499.7291      4374.8381    
     49900   490.9152      -923.49405     -5886.9838      4376.2971    
     49910   469.56925     -923.08227     -5852.0918      4375.512     
     49920   477.70706     -923.45771     -5305.7221      4372.5345    
     49930   472.26925     -923.42727     -4283.3005      4367.6089    
     49940   447.04443     -922.8113      -2987.1972      4361.1525    
     49950   445.29232     -922.80783     -1363.4863      4353.689     
     49960   464.63206     -923.35321      554.35851      4345.8518    
     49970   484.96449     -923.89946      2440.8619      4338.3588    
     49980   483.81879     -923.835        4004.1334      4331.8992    
     49990   467.66278     -923.34545      5104.0647      4327.0309    
     50000   467.70177     -923.29913      5690.746       4324.1298    
Loop time of 12.2431 on 1 procs for 50000 steps with 216 atoms

Performance: 352.852 ns/day, 0.068 hours/ns, 4083.936 timesteps/s, 882.130 katom-step/s
99.0% CPU use with 1 MPI tasks x 1 OpenMP threads

MPI task timing breakdown:
Section |  min time  |  avg time  |  max time  |%varavg| %total
---------------------------------------------------------------
Pair    | 11.7       | 11.7       | 11.7       |   0.0 | 95.57
Neigh   | 0          | 0          | 0          |   0.0 |  0.00
Comm    | 0.13957    | 0.13957    | 0.13957    |   0.0 |  1.14
Output  | 0.039965   | 0.039965   | 0.039965   |   0.0 |  0.33
Modify  | 0.32894    | 0.32894    | 0.32894    |   0.0 |  2.69
Other   |            | 0.03446    |            |       |  0.28

Nlocal:            216 ave         216 max         216 min
Histogram: 1 0 0 0 0 0 0 0 0 0
Nghost:            950 ave         950 max         950 min
Histogram: 1 0 0 0 0 0 0 0 0 0
Neighs:              0 ave           0 max           0 min
Histogram: 1 0 0 0 0 0 0 0 0 0
FullNghs:         7344 ave        7344 max        7344 min
Histogram: 1 0 0 0 0 0 0 0 0 0

Total # of neighbors = 7344
Ave neighs/atom = 34
Neighbor list builds = 0
Dangerous builds = 0


min_style cg
minimize 1e-10 1e-10 5000 10000
Per MPI rank memory allocation (min/avg/max) = 5.612 | 5.612 | 5.612 Mbytes
   Step          Temp          PotEng         Press          Volume    
     50000   467.70177     -923.29913      5690.746       4324.1298    
     50010   467.70177     -936.69006      3425.9033      4324.1298    
     50020   467.70177     -936.70552      3426.5019      4324.1298    
     50028   467.70177     -936.70554      3426.5032      4324.1298    
Loop time of 0.00688754 on 1 procs for 28 steps with 216 atoms

99.6% CPU use with 1 MPI tasks x 1 OpenMP threads

Minimization stats:
  Stopping criterion = energy tolerance
  Energy initial, next-to-last, final = 
     -923.299133579443  -936.705537933203  -936.705537974259
  Force two-norm initial, final = 21.3516 0.00071322392
  Force max component initial, final = 3.1790447 9.7072456e-05
  Final line search alpha, max atom move = 1 9.7072456e-05
  Iterations, force evaluations = 28 54

MPI task timing breakdown:
Section |  min time  |  avg time  |  max time  |%varavg| %total
---------------------------------------------------------------
Pair    | 0.0063216  | 0.0063216  | 0.0063216  |   0.0 | 91.78
Neigh   | 0          | 0          | 0          |   0.0 |  0.00
Comm    | 0.00015088 | 0.00015088 | 0.00015088 |   0.0 |  2.19
Output  | 1.1181e-05 | 1.1181e-05 | 1.1181e-05 |   0.0 |  0.16
Modify  | 0          | 0          | 0          |   0.0 |  0.00
Other   |            | 0.0004039  |            |       |  5.86

Nlocal:            216 ave         216 max         216 min
Histogram: 1 0 0 0 0 0 0 0 0 0
Nghost:            950 ave         950 max         950 min
Histogram: 1 0 0 0 0 0 0 0 0 0
Neighs:              0 ave           0 max           0 min
Histogram: 1 0 0 0 0 0 0 0 0 0
FullNghs:         7542 ave        7542 max        7542 min
Histogram: 1 0 0 0 0 0 0 0 0 0

Total # of neighbors = 7542
Ave neighs/atom = 34.916667
Neighbor list builds = 0
Dangerous builds = 0
variable teng equal "c_eatoms"
variable natoms equal "count(all)"
variable ecoh equal "v_teng/v_natoms"
variable lengthx equal lx/${xdim}
variable lengthx equal lx/3
variable lengthy equal ly/${ydim}
variable lengthy equal ly/3
variable lengthz equal lz/${zdim}
variable lengthz equal lz/3

print "cohesive energy: ${ecoh}"
cohesive energy: -4.3365997128438
print "x_length equals: ${lengthx}"
x_length equals: 5.43056462509108
print "y_length equals: ${lengthy}"
y_length equals: 5.43056462509108
print "z_length equals: ${lengthz}"
z_length equals: 5.43056462509108

variable lp_x equal ${lengthx}
variable lp_x equal 5.43056462509108
variable lp_y equal ${lengthy}
variable lp_y equal 5.43056462509108
variable lp_z equal ${lengthz}
variable lp_z equal 5.43056462509108

variable lp_avg equal "(v_lp_x + v_lp_y + v_lp_z) / 3"

print "lattice parameter equals ${lp_avg}"
lattice parameter equals 5.43056462509108
Total wall time: 0:00:12
