LAMMPS (30 Mar 2026)
OMP_NUM_THREADS environment is not set. Defaulting to 1 thread.
  using 1 OpenMP thread(s) per MPI task

# ------------------ Initialization ------------------
units           metal
boundary        p p p
atom_style      atomic

# ------------------ Geometry Generation -------------
# Silicon diamond cubic lattice constant is 5.431 Angstroms

variable pwd_path getenv PWD

variable structure_file string ../structures/si_structure.txt

read_data ../structures/si_structure.txt
Reading data file ...
  orthogonal box = (0 0 0) to (16.29 16.29 16.29)
  1 by 1 by 1 MPI processor grid
  reading atoms ...
  216 atoms
  read_data CPU = 0.001 seconds

# ------------------ Interatomic Potential -----------
# Using the standard Stillinger-Weber (SW) potential
pair_style      sw
pair_coeff      * * ../potentials/Si.sw Si
Reading sw potential file ../potentials/Si.sw with DATE: 2007-06-11


# ------------------ Compute -----------------
compute eng all pe/atom 	# a variable named 'eng' is defined to store the potential energy for each atom
compute eatoms all reduce sum c_eng  #a variable named 'eatoms' is defined to store the sum of all 'eng' values
compute new all temp


# ------------------ Energy Minimization -------------
# Relax the structure to remove any initial overlapping/strain
thermo          10
thermo_style    custom step temp pe press vol

minimize 1.0e-6 1.0e-6 5000 10000
Neighbor list info ...
  update: every = 1 steps, delay = 0 steps, check = yes
  max neighbors/atom: 2000, page size: 100000
  master list distance cutoff = 5.77118
  ghost atom cutoff = 5.77118
  binsize = 2.88559, bins = 6 6 6
  1 neighbor lists, perpetual/occasional/extra = 1 0 0
  (1) pair sw, perpetual
      attributes: full, newton on
      pair build: full/bin/atomonly
      stencil: full/bin/3d
      bin: standard
Per MPI rank memory allocation (min/avg/max) = 4.343 | 4.343 | 4.343 Mbytes
   Step          Temp          PotEng         Press          Volume    
         0   0             -936.70522      532.56802      4322.7812    
         1   0             -936.70522      532.56802      4322.7812    
Loop time of 0.000381182 on 1 procs for 1 steps with 216 atoms

98.6% CPU use with 1 MPI tasks x 1 OpenMP threads

Minimization stats:
  Stopping criterion = quadratic factors are zero
  Energy initial, next-to-last, final = 
     -936.705223045316  -936.705223045316  -936.705223045316
  Force two-norm initial, final = 1.1685261e-17 1.1685261e-17
  Force max component initial, final = 8.6736205e-19 8.6736205e-19
  Final line search alpha, max atom move = 1 8.6736205e-19
  Iterations, force evaluations = 1 2

MPI task timing breakdown:
Section |  min time  |  avg time  |  max time  |%varavg| %total
---------------------------------------------------------------
Pair    | 0.00035614 | 0.00035614 | 0.00035614 |   0.0 | 93.43
Neigh   | 0          | 0          | 0          |   0.0 |  0.00
Comm    | 9.918e-06  | 9.918e-06  | 9.918e-06  |   0.0 |  2.60
Output  | 0          | 0          | 0          |   0.0 |  0.00
Modify  | 0          | 0          | 0          |   0.0 |  0.00
Other   |            | 1.512e-05  |            |       |  3.97

Nlocal:            216 ave         216 max         216 min
Histogram: 1 0 0 0 0 0 0 0 0 0
Nghost:            950 ave         950 max         950 min
Histogram: 1 0 0 0 0 0 0 0 0 0
Neighs:              0 ave           0 max           0 min
Histogram: 1 0 0 0 0 0 0 0 0 0
FullNghs:         7344 ave        7344 max        7344 min
Histogram: 1 0 0 0 0 0 0 0 0 0

Total # of neighbors = 7344
Ave neighs/atom = 34
Neighbor list builds = 0
Dangerous builds = 0

# ------------------ Equilibration (NVT/NPT) ---------
reset_timestep  0
velocity all create ${temperature} 87287 loop geom
velocity all create 600 87287 loop geom

# Reference timestep for metal units with Silicon is typically 1-2 fs
timestep        0.001


# Tdamp - 100*Timestep
# Pdamp - 1000*Timestep
#
# Run NPT to fix temperature at 300K and pressure at 0 Bar
fix 1 all npt temp ${temperature} ${temperature} 0.1 iso ${pressure} ${pressure} 1.0
fix 1 all npt temp 600 ${temperature} 0.1 iso ${pressure} ${pressure} 1.0
fix 1 all npt temp 600 600 0.1 iso ${pressure} ${pressure} 1.0
fix 1 all npt temp 600 600 0.1 iso 0.0 ${pressure} 1.0
fix 1 all npt temp 600 600 0.1 iso 0.0 0.0 1.0

# Output settings

variable dump_path string "../results/lattice_parameter/si_out_${temperature}.dat"
../results/lattice_parameter/si_out_600.dat

dump 1 all custom 5000 ${dump_path} mass type xs ys zs
dump 1 all custom 5000 ../results/lattice_parameter/si_out_600.dat mass type xs ys zs

dump_modify 1 sort id

variable first_run_step equal ${steps}
variable first_run_step equal 50000

# Run the simulation
run ${first_run_step}
run 50000
Per MPI rank memory allocation (min/avg/max) = 3.218 | 3.218 | 3.218 Mbytes
   Step          Temp          PotEng         Press          Volume    
         0   600           -936.70522      4652.6911      4322.7812    
        10   324.81183     -929.03221      5100.3094      4323.5261    
        20   189.1873      -925.21428      4159.9159      4325.8257    
        30   366.43491     -929.98178      1858.4466      4329.3886    
        40   235.31112     -926.06947      1016.7632      4333.5867    
        50   175.0662      -924.23026      232.72065      4338.1115    
        60   381.87424     -929.72078     -1226.5221      4342.6939    
        70   304.27084     -927.26482     -1430.0093      4346.9394    
        80   262.63928     -925.91518     -1688.7827      4350.7393    
        90   421.7215      -930.07569     -2750.6158      4353.9864    
       100   334.72246     -927.34326     -2934.6321      4356.3995    
       110   284.90291     -925.71463     -3225.3795      4357.8842    
       120   404.02371     -928.70643     -3908.2499      4358.3356    
       130   320.76936     -926.03266     -3286.0064      4357.5923    
       140   293.52401     -924.99571     -2519.5271      4355.8133    
       150   439.88202     -928.69748     -2366.5565      4353.2176    
       160   382.13398     -926.67522     -1273.6825      4349.9063    
       170   327.8158      -924.83994      97.432771      4346.2039    
       180   454.36142     -927.974        766.31264      4342.5118    
       190   409.39643     -926.28611      1846.3475      4339.0787    
       200   336.62813     -923.91247      2746.1036      4336.2244    
       210   448.15771     -926.62623      2532.1815      4334.2001    
       220   439.92437     -925.94227      2622.7689      4332.9831    
       230   347.48938     -922.99727      3048.5459      4332.6028    
       240   404.11946     -924.20411      2660.7887      4333.1555    
       250   414.89978     -924.07719      2377.585       4334.5521    
       260   370.67547     -922.45384      2540.3157      4336.7157    
       270   460.59588     -924.54339      2214.3701      4339.6727    
       280   540.59018     -926.2677       1494.7812      4343.3268    
       290   447.15197     -923.21622      1029.1124      4347.4787    
       300   461.77171     -923.22724     -157.67753      4351.9504    
       310   529.50254     -924.65285     -1553.0577      4356.3846    
       320   475.56698     -922.70229     -2396.3697      4360.3625    
       330   455.64181     -921.74236     -3290.0346      4363.5915    
       340   494.28699     -922.38645     -3782.4542      4365.7973    
       350   474.80724     -921.40497     -3316.333       4366.8379    
       360   541.94397     -922.83112     -2941.3386      4366.8252    
       370   638.87654     -925.03072     -2848.1007      4365.8708    
       380   540.84824     -921.86156     -2159.3337      4364.0325    
       390   465.29053     -919.41063     -1626.1124      4361.5034    
       400   544.98927     -921.24639     -1467.8406      4358.4452    
       410   549.45325     -920.94664     -740.75462      4354.9384    
       420   518.37316     -919.68535      120.25675      4351.1983    
       430   544.71975     -920.02028      772.36012      4347.4856    
       440   526.39432     -919.10258      1975.3781      4344.0298    
       450   578.73116     -920.15151      3136.4392      4341.1939    
       460   656.47385     -921.87235      3534.0712      4339.3195    
       470   552.45602     -918.59493      4168.4993      4338.5667    
       480   559.1346      -918.45393      4462.368       4339.1183    
       490   698.7958      -921.96651      4154.9915      4341.0653    
       500   654.31102     -920.38608      3791.0804      4344.3376    
       510   643.53148     -919.82362      2525.4404      4348.8042    
       520   737.90989     -922.20499      448.32405      4354.074     
       530   560.30056     -917.0858      -837.67363      4359.5446    
       540   471.97469     -914.48459     -2073.1692      4364.7821    
       550   681.84749     -920.10749     -3593.0042      4369.3789    
       560   657.26472     -919.19226     -3825.6464      4372.8947    
       570   510.68422     -914.94937     -3551.8962      4375.2255    
       580   715.20283     -920.45398     -4412.3125      4376.3971    
       590   744.2372      -921.09032     -4429.424       4376.1935    
       600   512.21165     -914.5597      -3251.2471      4374.6149    
       610   610.1207      -917.20403     -2933.1089      4371.9665    
       620   753.83071     -921.10442     -2563.4099      4368.3794    
       630   604.91641     -916.93203     -1070.5969      4364.0027    
       640   611.47199     -917.10585      45.336529      4359.26      
       650   726.27962     -920.30348      903.57888      4354.513     
       660   646.8724      -918.15533      2105.3365      4350.0541    
       670   617.86546     -917.43492      2983.5354      4346.2408    
       680   674.33529     -919.11642      3762.7153      4343.3582    
       690   673.57602     -919.24673      4324.7777      4341.6523    
       700   729.53148     -921.02741      3844.256       4341.2786    
       710   605.89263     -917.87566      3189.3995      4342.1182    
       720   456.6208      -913.93013      2733.8533      4343.9832    
       730   638.44764     -919.15486      1529.808       4346.7029    
       740   697.81136     -921.03244      868.68195      4349.9466    
       750   516.68571     -916.2211       995.97614      4353.5172    
       760   594.07332     -918.54637      250.71555      4357.405     
       770   761.75706     -923.44041     -823.21533      4361.3946    
       780   633.62966     -920.17994     -1074.0921      4365.1844    
       790   566.13888     -918.57025     -1974.0624      4368.6433    
       800   619.20358     -920.30286     -3450.5527      4371.4849    
       810   562.38023     -918.96672     -4327.5172      4373.2663    
       820   573.95504     -919.50271     -4662.2739      4373.6942    
       830   596.40419     -920.34007     -4381.9442      4372.6539    
       840   542.99922     -919.04895     -3580.856       4370.225     
       850   544.25617     -919.24219     -2823.2585      4366.6383    
       860   581.0078      -920.40129     -1716.4231      4362.144     
       870   577.88063     -920.43547     -295.67785      4357.0896    
       880   602.10843     -921.22016      863.69376      4351.9088    
       890   588.75366     -920.95829      2023.5811      4346.9758    
       900   547.66885     -919.90395      3456.8404      4342.668     
       910   612.70021     -921.78452      4235.7032      4339.41      
       920   655.57425     -923.06703      4398.3906      4337.4543    
       930   597.68088     -921.57373      4384.1175      4336.875     
       940   555.25132     -920.50675      3722.4762      4337.6611    
       950   510.41647     -919.34612      2563.9904      4339.6187    
       960   463.80131     -918.08437      1559.8874      4342.4129    
       970   504.85773     -919.20433      813.78943      4345.7367    
       980   558.81762     -920.63193      452.33638      4349.364     
       990   554.52888     -920.40855      523.95947      4353.189     
      1000   574.72059     -920.8443       161.06768      4357.2098    
      1010   640.51146     -922.52589     -879.88332      4361.3072    
      1020   603.84272     -921.3635      -1956.7675      4365.1734    
      1030   583.77066     -920.67599     -3249.8354      4368.4502    
      1040   598.1843      -920.9408      -4087.2783      4370.7385    
      1050   560.54676     -919.75688     -3961.6271      4371.774     
      1060   525.34121     -918.63302     -3423.7429      4371.5668    
      1070   633.65879     -921.46798     -3184.1435      4370.2536    
      1080   641.20153     -921.48754     -2614.7242      4367.9252    
      1090   543.41918     -918.6135      -1761.5339      4364.7527    
      1100   594.23994     -919.86568     -1360.6979      4360.977     
      1110   638.43495     -920.9106      -858.36955      4356.7393    
      1120   511.94103     -917.22652      330.82129      4352.2141    
      1130   536.01933     -917.72205      1483.313       4347.7519    
      1140   670.08011     -921.21278      2541.0905      4343.7164    
      1150   651.7516      -920.47482      3601.5536      4340.45      
      1160   571.98696     -918.08172      4041.1304      4338.274     
      1170   554.93828     -917.44361      4052.9788      4337.3452    
      1180   597.34845     -918.43771      4154.387       4337.6933    
      1190   669.13064     -920.23845      4367.2397      4339.3677    
      1200   679.26367     -920.35393      4205.7255      4342.4426    
      1210   672.5036      -920.05589      3134.6977      4346.8733    
      1220   663.65011     -919.74641      1522.277       4352.355     
      1230   556.2247      -916.72001      7.5447584      4358.4111    
      1240   599.72457     -917.87846     -1728.5731      4364.5564    
      1250   700.9609      -920.63222     -3337.5002      4370.2472    
      1260   628.35213     -918.59381     -4116.5038      4374.9802    
      1270   582.16704     -917.30873     -4465.8965      4378.4767    
      1280   719.2923      -921.13824     -4952.9546      4380.583     
      1290   661.66646     -919.6129      -4780.0328      4381.1513    
      1300   556.77408     -916.79782     -4647.2754      4380.1901    
      1310   609.52655     -918.36425     -4935.7223      4377.7076    
      1320   581.21964     -917.6775      -4511.6968      4373.6303    
      1330   572.15069     -917.5179      -3568.2032      4368.0641    
      1340   599.97948     -918.37471     -1886.4163      4361.3032    
      1350   571.71651     -917.6547       466.84027      4353.8716    
      1360   646.12027     -919.77682      2365.5248      4346.4778    
      1370   692.86514     -921.16395      4152.7682      4339.7356    
      1380   577.81805     -918.07434      6346.3879      4334.2352    
      1390   683.38306     -921.12879      7089.0421      4330.6215    
      1400   793.31487     -924.41557      6819.6064      4329.1664    
      1410   554.25609     -918.06474      7022.0883      4329.866     
      1420   525.01049     -917.46624      5898.5981      4332.7602    
      1430   728.48078     -923.3724       3524.9503      4337.5378    
      1440   549.45201     -918.66997      2338.1587      4343.5676    
      1450   443.29487     -915.88735      675.7725       4350.4394    
      1460   603.09526     -920.44803     -1743.4815      4357.6387    
      1470   579.47628     -919.89644     -3183.4992      4364.4516    
      1480   492.54453     -917.54802     -3862.9063      4370.3987    
      1490   589.13227     -920.26885     -4757.931       4375.2085    
      1500   598.25696     -920.54659     -5009.6257      4378.6006    
      1510   585.64102     -920.22079     -5173.8462      4380.4452    
      1520   656.67888     -922.23315     -5616.9839      4380.648     
      1530   591.66311     -920.48881     -5335.5142      4379.0685    
      1540   507.7899      -918.21039     -4567.2257      4375.756     
      1550   607.59033     -921.01147     -3775.3777      4370.9161    
      1560   658.90404     -922.46644     -2272.5218      4364.8009    
      1570   572.57495     -920.10433      17.794409      4357.8807    
      1580   618.48648     -921.4144       1507.3518      4350.8225    
      1590   609.77885     -921.20593      2913.5234      4344.1253    
      1600   542.29828     -919.35685      4264.3135      4338.2409    
      1610   572.96181     -920.2167       4536.2462      4333.5738    
      1620   589.50553     -920.67439      4484.9781      4330.2519    
      1630   492.13454     -917.95182      4956.8498      4328.306     
      1640   483.8799      -917.67124      5131.3548      4327.8833    
      1650   551.02241     -919.43104      4966.3962      4329.0664    
      1660   546.18398     -919.14846      5051.6577      4331.8593    
      1670   590.23578     -920.19913      4653.235       4336.3047    
      1680   656.80955     -921.84937      3728.8601      4342.3158    
      1690   667.42504     -921.95764      2647.717       4349.6529    
      1700   688.64838     -922.39939      872.60013      4357.9916    
      1710   690.98409     -922.35828     -1797.9724      4366.7822    
      1720   586.7775      -919.39291     -4453.625       4375.2041    
      1730   516.33129     -917.36226     -6795.2679      4382.3929    
      1740   534.74893     -917.77022     -8616.1999      4387.5572    
      1750   501.28633     -916.70519     -8817.9599      4390.0884    
      1760   531.87901     -917.39495     -7731.4438      4389.8494    
      1770   701.56458     -921.9023      -6627.595       4387.0962    
      1780   750.76945     -923.08026     -5120.7103      4382.1545    
      1790   611.0384      -919.09946     -3101.1345      4375.4815    
      1800   616.05454     -919.17789     -2132.4526      4367.6503    
      1810   637.73176     -919.72477     -1445.0128      4358.9793    
      1820   465.61465     -914.88438      395.66352      4349.7234    
      1830   480.26335     -915.19202      2652.9998      4340.434     
      1840   701.73878     -921.16071      5137.3126      4331.8254    
      1850   692.16939     -920.69957      7907.2982      4324.6971    
      1860   612.60397     -918.36486      9571.8107      4319.8998    
      1870   697.73518     -920.64993      9685.8223      4317.9853    
      1880   673.47522     -919.95341      9457.2795      4319.0768    
      1890   604.80531     -918.08056      8411.1774      4323.1505    
      1900   648.809       -919.36631      6297.169       4329.9436    
      1910   623.58733     -918.7464       4021.9838      4338.8847    
      1920   601.47702     -918.21703      1550.4138      4349.3053    
      1930   636.46073     -919.27687     -1032.3219      4360.4566    
      1940   585.84459     -917.95527     -3353.396       4371.5375    
      1950   619.20626     -918.96705     -5815.4819      4381.7749    
      1960   650.80926     -919.96282     -7779.9744      4390.3631    
      1970   571.94471     -917.92421     -8816.1122      4396.6306    
      1980   610.24864     -919.17163     -9654.4832      4400.1594    
      1990   666.47021     -921.0132      -10186.749      4400.6177    
      2000   506.18526     -916.8783      -9406.9539      4397.8112    
      2010   517.59176     -917.47358     -8423.052       4391.9016    
      2020   675.29057     -922.19741     -7059.5605      4383.1749    
      2030   567.62564     -919.57874     -4149.0036      4372.0841    
      2040   494.65353     -917.81627     -745.80812      4359.5155    
      2050   645.58481     -922.23355      2278.0605      4346.5247    
      2060   655.78536     -922.73798      5521.9534      4334.0995    
      2070   620.32421     -921.9426       8193.6966      4323.2467    
      2080   647.02273     -922.86278      9662.0696      4314.7987    
      2090   569.46104     -920.86661      10451.099      4309.2521    
      2100   497.02606     -918.96049      10307.273      4306.8718    
      2110   470.84599     -918.29108      9488.1115      4307.6586    
      2120   445.89636     -917.6047       8738.837       4311.4272    
      2130   575.23128     -921.16789      7571.1369      4317.9815    
      2140   644.25283     -923.04012      6105.7162      4327.0153    
      2150   505.46762     -919.15094      4519.4038      4338.1285    
      2160   587.24743     -921.37252      1385.6002      4350.8159    
      2170   681.27823     -923.89063     -2214.9373      4364.143     
      2180   542.45062     -919.94281     -4969.0484      4376.9993    
      2190   522.99967     -919.29751     -7592.8967      4388.4512    
      2200   603.00806     -921.3782      -9884.5182      4397.6163    
      2210   555.39473     -919.90807     -10956.328      4403.7313    
      2220   570.65631     -920.20373     -11548.756      4406.3701    
      2230   620.6806      -921.47534     -11688.37       4405.2929    
      2240   516.36425     -918.48614     -10661.017      4400.4422    
      2250   510.01254     -918.22897     -9004.3984      4392.1063    
      2260   606.26121     -920.77944     -6474.0929      4380.8199    
      2270   545.57144     -918.93558     -2701.4373      4367.4137    
      2280   564.84465     -919.29047      1052.8011      4353.0647    
      2290   722.56822     -923.43657      4214.8483      4338.9593    
      2300   686.47183     -922.22218      7334.2424      4326.1228    
      2310   551.31152     -918.3191       9503.9585      4315.5041    
      2320   564.61414     -918.55753      10327.023      4307.7645    
      2330   580.38953     -918.86164      11232.449      4303.2009    
      2340   546.85018     -917.81092      12249.826      4302.103     
      2350   613.0629      -919.54905      11975.601      4304.7669    
      2360   658.56648     -920.73481      10456.183      4311.1427    
      2370   588.44263     -918.74934      8222.3883      4320.8189    
      2380   591.90281     -918.8187       5028.9208      4333.1333    
      2390   638.38841     -920.05821      1512.2695      4347.134     
      2400   610.87495     -919.22936     -1602.1522      4361.7492    
      2410   575.45015     -918.16498     -4689.068       4375.9689    
      2420   590.39232     -918.4739      -7371.4619      4388.7973    
      2430   636.285       -919.63096     -9526.4954      4399.3408    
      2440   651.07065     -919.94739     -10959.785      4406.8777    
      2450   634.21071     -919.43276     -11840.644      4410.9067    
      2460   621.36504     -919.07695     -11969.489      4411.1264    
      2470   643.02122     -919.72542     -11436.29       4407.4783    
      2480   628.99761     -919.42723     -9877.1408      4400.151     
      2490   581.53396     -918.21834     -7434.1607      4389.6594    
      2500   599.87178     -918.82758     -4930.2521      4376.7891    
      2510   626.74829     -919.66616     -2197.6098      4362.3747    
      2520   546.60049     -917.50613      1080.4919      4347.3204    
      2530   533.53541     -917.15755      4554.1611      4332.6656    
      2540   642.54314     -920.1588       7859.6954      4319.49      
      2550   665.19266     -920.7757       10830.03       4308.8058    
      2560   539.32821     -917.29771      13036.964      4301.4961    
      2570   572.62699     -918.26229      13799.447      4298.1952    
      2580   688.59991     -921.58078      13546.627      4299.1335    
      2590   656.65258     -920.89509      12586.433      4304.2386    
      2600   612.13338     -919.9468       10412.18       4313.2133    
      2610   646.38705     -921.26339      7000.6218      4325.401     
      2620   597.03482     -920.30414      3376.1822      4339.7883    
      2630   533.07504     -918.89303     -53.757679      4355.2596    
      2640   562.20733     -920.00558     -3746.7355      4370.7095    
      2650   574.01081     -920.58478     -7329.1459      4384.9576    
      2660   536.8928      -919.7368      -10045.415      4396.8591    
      2670   542.50269     -920.02117     -11982.653      4405.5148    
      2680   557.59927     -920.54827     -13004.038      4410.2935    
      2690   535.94831     -920.0455      -12943.714      4410.8747    
      2700   529.34242     -919.95078     -11927.083      4407.294     
      2710   574.29759     -921.27796     -10219.088      4399.9085    
      2720   620.80846     -922.64737     -8249.5981      4389.2974    
      2730   557.94776     -920.97393     -5447.3537      4376.1629    
      2740   466.25028     -918.44934     -2016.5999      4361.4398    
      2750   545.41087     -920.59734      1256.9153      4346.2246    
      2760   624.24527     -922.66602      4702.1252      4331.5778    
      2770   541.38902     -920.21241      8531.5778      4318.5789    
      2780   560.6278      -920.57785      11345.393      4308.3429    
      2790   662.38665     -923.22336      12753.754      4301.6804    
      2800   577.26455     -920.71439      13334.556      4298.9933    
      2810   551.26689     -919.89575      12432.847      4300.3913    
      2820   604.24193     -921.2749       10616.346      4305.584     
      2830   537.04613     -919.31648      8721.8563      4314.022     
      2840   520.17396     -918.75026      6234.5197      4325.0954    
      2850   584.0073      -920.37327      3428.0408      4338.0408    
      2860   552.77327     -919.31174      723.55524      4351.9887    
      2870   587.6916      -920.0637      -2640.3663      4366.0566    
      2880   641.18456     -921.29421     -6134.3693      4379.1868    
      2890   530.9975      -917.9939      -8452.5385      4390.2959    
      2900   518.69756     -917.43989     -9976.8445      4398.6273    
      2910   659.55631     -921.12853     -11127.376      4403.6856    
      2920   625.65381     -920.00393     -11017.949      4405.1534    
      2930   567.31816     -918.2778      -10169.611      4403.0826    
      2940   640.58851     -920.24061     -9069.0316      4397.7754    
      2950   661.92932     -920.79196     -7122.8033      4389.6531    
      2960   633.00663     -919.98545     -4588.8237      4379.3798    
      2970   649.62782     -920.46254     -2080.9169      4367.7869    
      2980   635.36077     -920.0861       551.4038       4355.7051    
      2990   641.75696     -920.2861       3010.7867      4343.9675    
      3000   628.22977     -919.94182      4907.2596      4333.3264    
      3010   506.40931     -916.57319      6395.6036      4324.3594    
      3020   478.22055     -915.76701      7093.9089      4317.4767    
      3030   543.18808     -917.50709      8005.036       4312.8891    
      3040   560.53756     -917.89775      9447.1723      4310.8503    
      3050   586.88551     -918.5364       10399.728      4311.7419    
      3060   698.80601     -921.56944      10046.303      4315.8052    
      3070   707.41593     -921.79146      8840.9589      4322.9241    
      3080   632.03346     -919.74739      6720.8787      4332.7066    
      3090   658.31469     -920.55002      3555.9386      4344.4792    
      3100   685.75435     -921.40046      114.35496      4357.2643    
      3110   606.16999     -919.28594     -3078.5456      4369.986     
      3120   569.83698     -918.34884     -6145.9573      4381.6185    
      3130   608.77625     -919.48602     -8429.6339      4391.204     
      3140   600.41716     -919.31925     -9769.5856      4398.0207    
      3150   540.48743     -917.72369     -10266.49       4401.6564    
      3160   571.40205     -918.65022     -10575.269      4401.9589    
      3170   636.50582     -920.5469      -10459.862      4398.8751    
      3180   582.28917     -919.16048     -9142.1677      4392.5141    
      3190   494.97169     -916.83895     -6801.4426      4383.3474    
      3200   578.26097     -919.21896     -4127.8443      4372.1564    
      3210   654.33553     -921.37285     -1229.0517      4359.8302    
      3220   592.44116     -919.68937      1969.5145      4347.3149    
      3230   587.22151     -919.56208      4774.2477      4335.5997    
      3240   683.70311     -922.271        6894.249       4325.5327    
      3250   589.45003     -919.71953      8896.9145      4317.7569    
      3260   509.21933     -917.56324      10026.982      4312.8209    
      3270   631.42473     -921.05329      10148.848      4311.0213    
      3280   659.10868     -921.98905      10039.75       4312.3746    
      3290   570.72198     -919.76202      9427.4376      4316.8073    
      3300   595.98759     -920.73215      7272.1399      4324.0744    
      3310   584.62656     -920.71698      4194.2461      4333.5124    
      3320   517.16929     -919.11631      1337.5628      4344.1838    
      3330   534.56497     -919.82576     -1093.5609      4355.193     
      3340   560.24671     -920.73945     -3377.3562      4365.7606    
      3350   511.63811     -919.54266     -5030.9897      4375.1822    
      3360   546.47902     -920.62253     -6446.4124      4382.9209    
      3370   596.33074     -922.10796     -7663.7837      4388.5332    
      3380   578.56497     -921.7162      -8359.9237      4391.657     
      3390   545.252       -920.88829     -8708.189       4392.0846    
      3400   525.04074     -920.40639     -8460.3544      4389.7421    
      3410   538.1879      -920.83034     -7526.0635      4384.7449    
      3420   541.16089     -920.94393     -5829.7053      4377.4351    
      3430   550.34717     -921.1982      -3610.9181      4368.3815    
      3440   557.37723     -921.3522      -1002.6961      4358.3164    
      3450   568.8047      -921.58649      1587.3636      4348.071     
      3460   582.631       -921.85142      3777.1131      4338.4494    
      3470   574.42815     -921.47771      5813.6809      4330.1326    
      3480   565.85079     -921.07382      7441.5069      4323.7222    
      3490   597.77148     -921.77788      8085.0376      4319.6743    
      3500   587.97813     -921.31584      7913.5084      4318.1598    
      3510   503.7978      -918.79467      7291.2815      4319.1053    
      3520   485.44941     -918.08952      6233.597       4322.296     
      3530   552.77861     -919.70741      4872.2623      4327.3893    
      3540   554.21735     -919.45292      4163.6098      4333.9851    
      3550   567.59154     -919.54663      3297.0504      4341.8327    
      3560   657.46698     -921.77239      1608.4375      4350.6385    
      3570   642.37376     -921.13011     -240.83294      4359.8922    
      3580   629.93912     -920.63112     -2485.55        4368.9981    
      3590   629.68739     -920.50901     -4804.2136      4377.2523    
      3600   565.09255     -918.62482     -6548.0237      4383.9363    
      3610   539.3833      -917.82697     -7749.264       4388.4961    
      3620   617.23939     -919.90457     -8394.2106      4390.5577    
      3630   612.91124     -919.71576     -7924.6098      4389.9503    
      3640   576.52526     -918.65951     -6813.0559      4386.8365    
      3650   678.3428      -921.4592      -5923.5821      4381.568     
      3660   646.67994     -920.58166     -4203.3213      4374.493     
      3670   514.30828     -916.91608     -2104.64        4366.1673    
      3680   578.22424     -918.67429     -626.77002      4357.2427    
      3690   668.91806     -921.15388      1064.7799      4348.2227    
      3700   560.17032     -918.09773      3340.2777      4339.6516    
      3710   518.95484     -916.90205      5166.7646      4332.2015    
      3720   628.01296     -919.84931      6470.4063      4326.424     
      3730   649.4285      -920.36008      7736.9948      4322.7179    
      3740   626.38386     -919.67099      8602.1984      4321.4422    
      3750   673.67397     -920.97453      8428.7028      4322.8266    
      3760   674.67188     -921.04413      7306.4166      4326.8042    
      3770   592.97117     -918.8578       5583.9449      4333.0258    
      3780   548.18263     -917.68895      3310.9956      4340.9512    
      3790   610.46535     -919.47168      801.10392      4349.873     
      3800   622.23824     -919.84442     -1373.6718      4359.0171    
      3810   538.42894     -917.55145     -3181.0341      4367.6965    
      3820   555.11264     -918.02285     -4922.9804      4375.3248    
      3830   630.63253     -920.11354     -6100.3967      4381.3615    
      3840   604.71544     -919.39641     -6251.0097      4385.4501    
      3850   615.84798     -919.72504     -6229.8584      4387.5225    
      3860   721.53325     -922.72036     -6533.4439      4387.5822    
      3870   677.02489     -921.6273      -6480.0379      4385.5682    
      3880   541.27725     -918.03517     -5924.3742      4381.5172    
      3890   543.5082      -918.26465     -5014.6532      4375.62      
      3900   568.55246     -919.11872     -3543.4982      4368.1922    
      3910   563.61399     -919.12672     -1781.9158      4359.7134    
      3920   576.78307     -919.62617      94.117662      4350.7491    
      3930   564.57084     -919.40425      2367.3628      4341.9058    
      3940   568.92599     -919.62253      4595.258       4333.8841    
      3950   592.13712     -920.36188      6121.972       4327.348     
      3960   559.3722      -919.5451       7349.57        4322.769     
      3970   570.9833      -919.95775      8052.3891      4320.4983    
      3980   650.4801      -922.28123      8039.0329      4320.7282    
      3990   621.95009     -921.65094      7824.7493      4323.4579    
      4000   576.66253     -920.57438      6841.5413      4328.5972    
      4010   646.05187     -922.7106       4387.4795      4335.8129    
      4020   582.98192     -921.18836      1860.7946      4344.3799    
      4030   475.43268     -918.37726     -378.0757       4353.5136    
      4040   531.52212     -920.06253     -2766.4135      4362.4897    
      4050   520.5132      -919.84334     -4374.1141      4370.5798    
      4060   506.00366     -919.48495     -5443.3373      4377.2622    
      4070   592.99991     -921.92129     -6620.5084      4382.1756    
      4080   607.96041     -922.35779     -7349.5186      4384.9653    
      4090   524.18684     -920.05396     -7317.8701      4385.4159    
      4100   536.30332     -920.39987     -6969.0801      4383.5351    
      4110   549.61167     -920.75037     -6104.0989      4379.4577    
      4120   515.87115     -919.76057     -4520.9368      4373.4857    
      4130   557.72645     -920.82201     -2718.0532      4366.1264    
      4140   614.52606     -922.23263     -593.40813      4357.9748    
      4150   619.97372     -922.17273      1554.5386      4349.7044    
      4160   599.66872     -921.37592      3104.9402      4341.9754    
      4170   580.96379     -920.60358      4261.6538      4335.272     
      4180   565.27578     -919.89032      5429.7475      4329.9558    
      4190   570.69467     -919.73888      6360.8557      4326.3692    
      4200   584.03344     -919.7904       6704.4593      4324.7757    
      4210   584.49239     -919.49215      6508.1226      4325.2695    
      4220   583.23806     -919.17501      5950.1802      4327.7845    
      4230   581.96543     -918.89261      4999.6967      4332.1403    
      4240   595.40732     -919.05277      3647.8385      4338.0368    
      4250   612.60276     -919.34888      2216.0922      4345.0612    
      4260   601.67802     -918.89598      677.76263      4352.7614    
      4270   612.91993     -919.08374     -1055.302       4360.65      
      4280   647.68831     -919.94389     -2792.4865      4368.1818    
      4290   604.69897     -918.66902     -4119.0669      4374.8171    
      4300   586.55391     -918.09994     -5222.2919      4380.1242    
      4310   655.10881     -919.94746     -6204.9031      4383.7485    
      4320   670.08713     -920.34236     -6750.3542      4385.3881    
      4330   561.84179     -917.34571     -6356.1103      4384.8907    
      4340   612.27164     -918.7633      -5726.1368      4382.3716    
      4350   684.25424     -920.79372     -4715.3346      4378.0525    
      4360   624.12573     -919.18566     -3096.9521      4372.28      
      4370   633.17165     -919.51766     -1645.7724      4365.5584    
      4380   675.78771     -920.80325     -385.6543       4358.3601    
      4390   639.69872     -919.93925      825.92324      4351.0917    
      4400   530.17702     -917.02431      2145.6483      4344.1425    
      4410   508.35331     -916.50287      3096.4139      4337.9036    
      4420   552.0666      -917.75902      4171.0644      4332.6849    
      4430   627.74196     -919.89225      5255.3846      4328.8039    
      4440   591.27553     -918.91613      6610.4083      4326.6009    
      4450   591.71041     -918.97126      7101.1155      4326.4502    
      4460   673.4979      -921.3089       6548.4265      4328.491     
      4470   637.70187     -920.42195      5710.5218      4332.5696    
      4480   590.57433     -919.23844      4474.2805      4338.4175    
      4490   674.67963     -921.72357      2652.901       4345.6406    
      4500   641.12092     -920.97953      854.38651      4353.6884    
      4510   558.89223     -918.87707     -1205.471       4361.9831    
      4520   620.12945     -920.75251     -3612.6974      4369.8647    
      4530   606.93702     -920.57436     -5364.4469      4376.5976    
      4540   518.6996      -918.28904     -6489.8835      4381.6188    
      4550   528.92026     -918.70487     -7238.2759      4384.5588    
      4560   575.74008     -920.12203     -7337.3749      4385.1931    
      4570   594.35008     -920.75989     -6948.6941      4383.4927    
      4580   558.81416     -919.89285     -6038.4653      4379.5999    
      4590   526.92763     -919.10403     -4807.6364      4373.8151    
      4600   561.881       -920.14401     -3498.4998      4366.5418    
      4610   557.03523     -920.05209     -1746.0279      4358.2231    
      4620   516.02383     -918.91659      695.49958      4349.4329    
      4630   591.74731     -920.9801       3139.6012      4340.9265    
      4640   661.80592     -922.86285      5357.2474      4333.4624    
      4650   603.18867     -921.18361      7299.3997      4327.7223    
      4660   627.47749     -921.82637      8023.5341      4324.2656    
      4670   673.16874     -923.0938       7568.1551      4323.2994    
      4680   571.84602     -920.31299      6828.9082      4324.6951    
      4690   545.00864     -919.61098      5579.9084      4328.2021    
      4700   536.46515     -919.39558      3998.8384      4333.4349    
      4710   482.29026     -917.86918      2241.45        4339.9015    
      4720   520.10908     -918.8337       302.92703      4347.0483    
      4730   564.40365     -919.88705     -1001.4258      4354.2907    
      4740   536.54057     -918.86673     -1564.5844      4361.2187    
      4750   601.11654     -920.35176     -2541.3431      4367.6185    
      4760   654.04019     -921.44613     -3714.3862      4373.1884    
      4770   619.71179     -920.13478     -4393.9103      4377.5751    
      4780   676.92799     -921.4107      -5201.5388      4380.5422    
      4790   660.32166     -920.67944     -5877.4659      4381.8448    
      4800   558.93764     -917.67139     -6087.229       4381.2821    
      4810   600.01144     -918.6512      -5956.9254      4378.7892    
      4820   579.83651     -917.92914     -4830.0535      4374.444     
      4830   563.28739     -917.31959     -2921.1371      4368.6151    
      4840   682.72883     -920.47655     -1208.7165      4361.8899    
      4850   692.07812     -920.59645      509.56158      4354.8305    
      4860   587.29626     -917.59716      2307.1912      4347.9878    
      4870   638.0864      -918.93797      3546.498       4341.9039    
      4880   635.79133     -918.81251      4541.2934      4336.9697    
      4890   589.88671     -917.49454      5243.6629      4333.4866    
      4900   669.81938     -919.69058      5179.5684      4331.6444    
      4910   633.88336     -918.69858      5303.2215      4331.4436    
      4920   545.00444     -916.25046      5282.8264      4332.903     
      4930   640.91408     -918.93514      4565.9208      4335.9931    
      4940   678.23873     -920.01086      3791.3195      4340.5104    
      4950   616.24237     -918.36305      2684.4347      4346.2015    
      4960   630.36638     -918.84667      806.6169       4352.7045    
      4970   637.53267     -919.15214     -1020.7824      4359.4509    
      4980   606.77306     -918.41558     -2430.7249      4365.8712    
      4990   621.60532     -918.95871     -3633.4136      4371.5071    
      5000   620.67866     -919.07901     -4225.3812      4375.996     
      5010   669.14697     -920.60652     -5095.0621      4379.1149    
      5020   678.76487     -921.12086     -5634.1822      4380.6098    
      5030   557.70452     -918.0234      -5421.0132      4380.3251    
      5040   518.73022     -917.15036     -4905.412       4378.3252    
      5050   644.0358      -920.83981     -4661.8271      4374.7633    
      5060   611.92207     -920.17508     -3518.3312      4369.7684    
      5070   520.36325     -917.81216     -1783.1298      4363.7053    
      5080   620.95437     -920.75337     -487.09392      4357.1026    
      5090   640.94776     -921.46238      773.38379      4350.3882    
      5100   500.2608      -917.67161      2304.1827      4343.9711    
      5110   547.63448     -919.05076      3296.5741      4338.3036    
      5120   638.84494     -921.63092      4315.6921      4333.7081    
      5130   557.0631      -919.39761      5651.1574      4330.5027    
      5140   582.15429     -920.12221      6366.9531      4329.0647    
      5150   665.04527     -922.45737      6422.892       4329.6099    
      5160   634.07185     -921.65972      5959.32        4332.1537    
      5170   587.10607     -920.43196      4638.6873      4336.5365    
      5180   579.94238     -920.29978      2569.3792      4342.3448    
      5190   542.79233     -919.30587      674.32446      4348.9583    
      5200   544.26896     -919.35096     -1062.7845      4355.7764    
      5210   553.66364     -919.5825      -2568.7892      4362.2508    
      5220   535.11078     -919.00862     -3670.5894      4367.9085    
      5230   575.24484     -920.04313     -4468.4334      4372.394     
      5240   598.59568     -920.59943     -4687.8053      4375.4631    
      5250   578.09862     -919.94192     -4577.2973      4377.041     
      5260   617.67976     -920.96054     -4688.7347      4377.1498    
      5270   636.56099     -921.41706     -4624.3551      4375.7727    
      5280   592.43105     -920.14732     -3863.3167      4372.9547    
      5290   585.06391     -919.90652     -2976.2943      4368.9292    
      5300   603.69288     -920.38647     -2452.0717      4363.97      
      5310   550.73583     -918.87416     -1529.2915      4358.2772    
      5320   523.17498     -918.05052     -7.6410875      4352.1535    
      5330   571.23617     -919.29403      1654.5084      4346.0675    
      5340   617.19179     -920.45813      3309.3893      4340.5398    
      5350   611.40732     -920.19229      4740.6441      4336.0792    
      5360   623.64741     -920.44779      5638.7157      4333.1175    
      5370   642.20437     -920.90403      5855.9176      4331.9201    
      5380   621.08178     -920.29087      5420.3595      4332.5475    
      5390   563.92405     -918.69254      4560.7822      4334.8639    
      5400   568.66893     -918.80806      3462.8454      4338.6001    
      5410   591.2961      -919.4063       2455.28        4343.4222    
      5420   598.99926     -919.58501      1456.0154      4349.0104    
      5430   634.13601     -920.53029      257.43709      4355.044     
      5440   626.25279     -920.29447     -887.4508       4361.1538    
      5450   578.48972     -918.956       -2099.5626      4366.9716    
      5460   636.37784     -920.55257     -3614.5636      4372.1032    
      5470   634.1905      -920.49275     -4976.0988      4376.0794    
      5480   530.71508     -917.62421     -5797.6622      4378.4777    
      5490   536.85816     -917.78488     -6208.2142      4379.0308    
      5500   565.45077     -918.54521     -5706.8155      4377.6303    
      5510   573.25952     -918.71651     -4508.1453      4374.4383    
      5520   618.12464     -919.91108     -3088.9255      4369.8367    
      5530   672.25227     -921.3748      -1511.0215      4364.2834    
      5540   648.78354     -920.71278      336.37445      4358.2944    
      5550   631.61686     -920.25118      1683.1892      4352.4336    
      5560   642.8492      -920.59562      2360.1589      4347.1209    
      5570   621.95263     -920.06429      2900.1318      4342.5813    
      5580   579.66753     -918.94226      3550.5119      4338.9817    
      5590   562.01529     -918.48898      4137.7613      4336.5166    
      5600   604.42635     -919.69227      4014.4581      4335.3427    
      5610   600.38242     -919.60744      3651.8423      4335.4286    
      5620   516.90866     -917.30322      3585.236       4336.6748    
      5630   567.99335     -918.71426      3179.5859      4339.0353    
      5640   632.91494     -920.49089      2674.8125      4342.3912    
      5650   599.25613     -919.5376       2169.9814      4346.5875    
      5660   584.28092     -919.10475      1276.2578      4351.4538    
      5670   661.02779     -921.2211      -114.7171       4356.7037    
      5680   616.77576     -919.99054     -1342.05        4361.918     
      5690   553.66666     -918.23939     -2332.8337      4366.7081    
      5700   633.82168     -920.45884     -3294.9368      4370.7514    
      5710   674.58625     -921.5982      -3996.0733      4373.7489    
      5720   611.07003     -919.87806     -4363.2057      4375.4795    
      5730   559.65967     -918.50344     -4478.9722      4375.8266    
      5740   576.95119     -919.02814     -4408.5285      4374.7537    
      5750   605.05471     -919.85034     -3986.2208      4372.2941    
      5760   583.375       -919.29335     -3232.2027      4368.5888    
      5770   564.48033     -918.8082      -2133.7712      4363.8857    
      5780   606.08983     -919.9937      -882.76831      4358.534     
      5790   651.14556     -921.28501      377.72641      4352.9317    
      5800   578.55481     -919.33391      1788.6132      4347.4846    
      5810   502.45824     -917.2759       2813.1855      4342.6176    
      5820   600.46748     -920.04418      3166.894       4338.6375    
      5830   626.43485     -920.82227      3970.0085      4335.6864    
      5840   553.23447     -918.86263      5082.8595      4334.0049    
      5850   597.65719     -920.17673      5224.2235      4333.8974    
      5860   655.54143     -921.89702      4689.5102      4335.4139    
      5870   577.36749     -919.86485      4207.7306      4338.4074    
      5880   597.66918     -920.57799      2954.4491      4342.6983    
      5890   630.0582      -921.64726      1362.16        4347.9077    
      5900   534.78637     -919.16699      241.70003      4353.5597    
      5910   517.34149     -918.80445     -1018.0203      4359.2818    
      5920   621.16145     -921.79541     -2542.7168      4364.6689    
      5930   609.43377     -921.58269     -3423.3389      4369.2643    
      5940   574.67841     -920.73257     -4066.333       4372.7739    
      5950   562.12148     -920.4899      -4906.6689      4374.9786    
      5960   517.44103     -919.33076     -5334.5923      4375.6305    
      5970   517.34228     -919.37721     -5287.046       4374.5966    
      5980   552.18406     -920.3648      -4896.5115      4371.8917    
      5990   551.27124     -920.33315     -3770.2176      4367.6641    
      6000   541.74571     -920.03468     -2319.4562      4362.2657    
      6010   553.32671     -920.28964     -689.27668      4356.1617    
      6020   555.60081     -920.24683      1245.8748      4349.8799    
      6030   615.18176     -921.76398      2839.6579      4344.0113    
      6040   647.62177     -922.51184      4164.462       4339.0574    
      6050   612.98349     -921.41338      5290.703       4335.4317    
      6060   645.64841     -922.20562      5486.016       4333.4545    
      6070   602.29617     -920.90382      5159.5835      4333.1936    
      6080   536.81876     -918.999        4450.2709      4334.5449    
      6090   560.35813     -919.54839      3339.0669      4337.2807    
      6100   554.34075     -919.24253      2311.8767      4341.0685    
      6110   497.86504     -917.51135      1211.1677      4345.581     
      6120   554.84143     -918.89177     -2.1266415      4350.4702    
      6130   575.67499     -919.21414     -630.51428      4355.3725    
      6140   545.26879     -918.11062     -814.89891      4360.0885    
      6150   668.93648     -921.27657     -1680.1418      4364.5227    
      6160   722.27305     -922.50035     -2477.9787      4368.4254    
      6170   608.33393     -919.17026     -2921.6593      4371.5528    
      6180   604.47707     -918.95189     -3819.749       4373.7341    
      6190   621.41423     -919.32308     -4464.4831      4374.7064    
      6200   591.03289     -918.39936     -4275.0946      4374.2825    
      6210   623.77922     -919.24381     -3746.0602      4372.5094    
      6220   657.05198     -920.1202      -2786.6403      4369.566     
      6230   615.82732     -918.95248     -1580.0761      4365.7586    
      6240   633.83497     -919.44967     -943.3216       4361.4493    
      6250   636.14854     -919.52626     -323.21067      4356.8613    
      6260   588.94558     -918.23884      597.33285      4352.1997    
      6270   577.09508     -917.92605      1546.1053      4347.7477    
      6280   597.51462     -918.50022      2546.7289      4343.8039    
      6290   582.16376     -918.06888      3526.1525      4340.6781    
      6300   652.74067     -920.03098      3950.8386      4338.6561    
      6310   644.41302     -919.82546      4168.747       4337.8837    
      6320   551.91107     -917.29835      4206.3871      4338.4228    
      6330   576.06318     -917.99788      3667.6835      4340.2711    
      6340   692.35981     -921.26255      2846.9939      4343.2663    
      6350   644.06233     -919.99322      2598.2289      4347.1807    
      6360   613.40337     -919.24062      1817.7823      4351.9034    
      6370   701.75282     -921.8309       26.723936      4357.174     
      6380   642.81612     -920.38696     -1556.5392      4362.4649    
      6390   514.91791     -917.01874     -2736.6547      4367.2771    
      6400   560.76604     -918.44836     -4055.4697      4371.2135    
      6410   624.05102     -920.38045     -4787.4367      4373.8756    
      6420   547.90314     -918.44396     -4676.7805      4375.0368    
      6430   561.85145     -918.99871     -4388.4401      4374.7112    
      6440   627.90788     -921.01469     -3893.0804      4372.9991    
      6450   625.9246      -921.17416     -3142.2675      4370.0643    
      6460   587.39842     -920.33501     -2486.171       4366.1383    
      6470   566.76905     -919.98847     -1951.7513      4361.4323    
      6480   561.8874      -920.06364     -1085.3632      4356.1351    
      6490   567.3029      -920.41173      90.322895      4350.5217    
      6500   517.40874     -919.18827      1708.6489      4344.9716    
      6510   531.45415     -919.6953       3094.8278      4339.9708    
      6520   600.25305     -921.70488      4132.5803      4335.9516    
      6530   594.89562     -921.65513      4892.576       4333.2347    
      6540   562.43157     -920.8467       5334.0137      4332.0539    
      6550   587.31492     -921.62671      5293.3651      4332.537     
      6560   586.09391     -921.67978      4772.2926      4334.6704    
      6570   578.54405     -921.5556       3649.0229      4338.2888    
      6580   568.18686     -921.34567      2066.2851      4343.0454    
      6590   526.1572      -920.23549      564.27069      4348.4601    
      6600   489.53158     -919.23589     -527.40234      4354.0704    
      6610   527.74384     -920.26596     -1653.3625      4359.5164    
      6620   572.27885     -921.41327     -2885.1141      4364.4387    
      6630   565.68082     -921.08422     -3656.5193      4368.4616    
      6640   559.51513     -920.70199     -3920.4943      4371.3379    
      6650   576.35151     -920.86495     -4062.037       4372.97      
      6660   581.10513     -920.59146     -4152.5985      4373.3116    
      6670   582.47424     -920.16497     -4068.4419      4372.3392    
      6680   591.8466      -919.95134     -3540.4264      4370.0894    
      6690   606.19366     -919.92254     -2554.7442      4366.7337    
      6700   592.61936     -919.19251     -1353.9439      4362.5837    
      6710   599.55088     -919.10813     -230.63461      4358.0152    
      6720   637.90157     -919.94264      750.04582      4353.3842    
      6730   625.62911     -919.41798      1866.4587      4349.0105    
      6740   644.22744     -919.79554      2700.1505      4345.2318    
      6750   639.58093     -919.56186      3129.6658      4342.3057    
      6760   587.68296     -918.04631      3265.3805      4340.3666    
      6770   567.9031      -917.42991      3188.5997      4339.4555    
      6780   600.1124      -918.25006      3243.3699      4339.5567    
      6790   599.7157      -918.15885      3554.607       4340.6918    
      6800   643.11667     -919.29279      3347.207       4342.9347    
      6810   678.50174     -920.22443      2531.7916      4346.2202    
      6820   649.05135     -919.39622      1710.9578      4350.3142    
      6830   619.00854     -918.57885      692.32484      4354.9534    
      6840   634.22012     -919.03379     -529.88121      4359.8148    
      6850   621.69479     -918.72838     -1548.8568      4364.5251    
      6860   667.36062     -920.06166     -2749.9646      4368.7457    
      6870   661.0002      -919.99404     -3735.9068      4372.105     
      6880   542.86519     -916.83007     -4344.7452      4374.2921    
      6890   566.42368     -917.58599     -5190.8413      4375.0861    
      6900   602.53356     -918.6882      -5046.1328      4374.2584    
      6910   545.84567     -917.20404     -3808.2643      4371.8562    
      6920   610.44648     -919.07396     -2519.4041      4368.247     
      6930   724.90165     -922.36201     -1364.1244      4363.8383    
      6940   627.20265     -919.80422      284.58637      4359.0237    
      6950   614.09157     -919.60662      1263.6811      4354.2905    
      6960   680.36036     -921.6503       1482.8649      4349.9451    
      6970   597.44542     -919.57509      2006.9831      4346.088     
      6980   548.32201     -918.40855      2508.445       4342.8703    
      6990   596.79975     -919.93629      2791.8463      4340.4423    
      7000   574.64237     -919.49205      3174.9209      4338.902     
      7010   529.50792     -918.37623      3370.6657      4338.3593    
      7020   548.3187      -919.00255      3214.2004      4338.8711    
      7030   581.54242     -920.00537      3014.5891      4340.3996    
      7040   609.559       -920.85754      2606.8788      4342.8772    
      7050   585.65461     -920.26727      2124.2706      4346.1855    
      7060   565.72706     -919.77225      1353.1863      4350.1679    
      7070   644.23521     -922.007        219.34673      4354.5808    
      7080   644.49635     -922.08701     -776.25522      4359.0845    
      7090   548.60473     -919.50041     -1800.8089      4363.3572    
      7100   553.42037     -919.68877     -3058.7179      4367.0637    
      7110   585.18784     -920.60859     -3899.0194      4369.8195    
      7120   525.02837     -918.95496     -3814.702       4371.3705    
      7130   564.46941     -920.04592     -3678.514       4371.711     
      7140   642.38933     -922.19036     -3521.6506      4370.8845    
      7150   609.13125     -921.25806     -3087.6355      4368.9471    
      7160   555.26399     -919.75955     -2580.0949      4366.0315    
      7170   545.39311     -919.46559     -2166.8904      4362.2927    
      7180   528.68688     -918.94481     -1482.5864      4357.8754    
      7190   569.96431     -919.99305     -637.02323      4352.9901    
      7200   567.72216     -919.7816       966.65348      4347.9262    
      7210   535.82962     -918.70394      2895.3626      4343.1772    
      7220   627.18878     -920.9875       4048.6007      4339.3166    
      7230   668.1629      -921.8097       4866.8413      4336.7209    
      7240   613.969       -920.0056       5502.9767      4335.6535    
      7250   649.92974     -920.72574      4900.0543      4336.2818    
      7260   630.97685     -919.92821      3812.6716      4338.4464    
      7270   547.05673     -917.36518      2977.1265      4341.8348    
      7280   621.66792     -919.20969      1806.1563      4346.1689    
      7290   633.7532      -919.30415      969.81831      4351.1069    
      7300   570.23715     -917.34087      410.09738      4356.3892    
      7310   662.50895     -919.72373     -938.31266      4361.8065    
      7320   692.35906     -920.39624     -2193.7356      4366.958     
      7330   576.42355     -917.07794     -2848.496       4371.459     
      7340   628.7875      -918.46178     -4199.8462      4375.0514    
      7350   652.59599     -919.06619     -5229.9252      4377.3299    
      7360   556.87042     -916.37511     -5171.54        4377.979     
      7370   622.97617     -918.18808     -4909.328       4376.9823    
      7380   668.84187     -919.45217     -4324.4404      4374.4242    
      7390   600.20469     -917.5636      -3310.6793      4370.4939    
      7400   627.37225     -918.34676     -2220.9689      4365.5012    
      7410   671.88732     -919.62787     -665.49858      4359.8043    
      7420   617.71953     -918.18184      1396.5766      4353.9046    
      7430   657.17062     -919.3482       2733.301       4348.4144    
      7440   706.8315      -920.83256      3569.6701      4343.7649    
      7450   664.36613     -919.80511      4344.2838      4340.2329    
      7460   620.70029     -918.76084      4687.2928      4338.0507    
      7470   597.78077     -918.28844      4311.0345      4337.3194    
      7480   580.06252     -917.93843      3855.0534      4337.9489    
      7490   603.25134     -918.71038      3334.4378      4339.7951    
      7500   601.86571     -918.78687      2997.0768      4342.7175    
      7510   621.99783     -919.45624      2118.8867      4346.5922    
      7520   631.22228     -919.82535      802.2642       4351.1549    
      7530   562.761       -918.02502     -447.417        4356.0105    
      7540   531.30492     -917.21239     -1399.8181      4360.7693    
      7550   622.8219      -919.79007     -2301.3404      4365.1199    
      7560   659.77601     -920.85844     -3024.9777      4368.7748    
      7570   608.13486     -919.4854      -3194.5664      4371.5096    
      7580   610.05309     -919.60363     -3347.0142      4373.2455    
      7590   647.29057     -920.71327     -3668.0343      4373.9213    
      7600   625.42242     -920.19623     -3617.6943      4373.4445    
      7610   619.24364     -920.12701     -3420.2407      4371.8152    
      7620   616.07551     -920.14554     -3057.5026      4369.0934    
      7630   603.10139     -919.89389     -2423.3914      4365.3911    
      7640   562.17144     -918.84954     -1441.8041      4360.91      
      7650   571.34452     -919.17238     -448.33756      4355.9489    
      7660   605.51216     -920.17155      568.13477      4350.8239    
      7670   584.8319      -919.64115      1554.6182      4345.8512    
      7680   513.72506     -917.68612      2612.4501      4341.3473    
      7690   536.69302     -918.30977      3546.7572      4337.6397    
      7700   594.166       -919.86154      4354.7341      4335.0252    
      7710   604.8994      -920.10871      5214.9359      4333.7718    
      7720   609.56749     -920.1962       5620.4345      4334.1447    
      7730   654.51541     -921.41933      5088.5535      4336.2698    
      7740   670.71452     -921.87738      4075.2736      4340.0116    
      7750   614.15498     -920.34838      3115.6478      4345.086     
      7760   589.06051     -919.69961      1582.6349      4351.186     
      7770   627.17159     -920.80153     -683.3417       4357.8343    
      7780   594.97112     -919.94985     -2655.8413      4364.3455    
      7790   511.52208     -917.65466     -3923.1255      4370.098     
      7800   550.02428     -918.71566     -5013.8371      4374.6569    
      7810   591.53533     -919.83507     -5578.4977      4377.6695    
      7820   541.76412     -918.40679     -5458.1179      4378.9432    
      7830   579.6693      -919.39826     -5188.6295      4378.4824    
      7840   662.52333     -921.62071     -4628.3384      4376.3634    
      7850   615.64763     -920.24922     -3417.7967      4372.7668    
      7860   576.1761      -919.09085     -2243.2427      4368.0482    
      7870   610.43345     -919.95792     -1308.4986      4362.5725    
      7880   601.03545     -919.57883     -181.95916      4356.6473    
      7890   596.6653      -919.30552      994.60418      4350.6224    
      7900   623.32183     -919.84003      2319.7359      4344.8721    
      7910   582.0441      -918.42981      3923.6275      4339.8232    
      7920   600.56403     -918.63071      5061.4778      4335.9638    
      7930   694.95692     -920.8605       5558.2777      4333.6508    
      7940   650.60801     -919.23355      6147.1195      4333.0807    
      7950   627.3527      -918.26126      5732.3021      4334.4183    
      7960   694.74688     -919.83496      4458.37        4337.5616    
      7970   649.46152     -918.33208      3281.9085      4342.1604    
      7980   557.6394      -915.60482      1970.2018      4347.8569    
      7990   617.8306      -917.111        366.59723      4354.2421    
      8000   666.18242     -918.28283     -618.02524      4360.8458    
      8010   657.48101     -917.90868     -1641.1398      4367.3376    
      8020   694.843       -918.85968     -3210.309       4373.3722    
      8030   677.82291     -918.35129     -4668.0026      4378.4585    
      8040   617.74898     -916.6902      -5495.0467      4382.1286    
      8050   626.41038     -916.96071     -5847.0234      4384.0878    
      8060   644.16949     -917.50502     -5699.143       4384.2022    
      8070   659.935       -918.0246      -5099.0164      4382.4989    
      8080   714.1122      -919.66536     -4386.9028      4379.1429    
      8090   687.84375     -919.14139     -3303.5479      4374.3575    
      8100   616.85555     -917.40039     -1921.911       4368.4786    
      8110   641.30047     -918.31384     -851.87228      4361.9201    
      8120   662.03345     -919.1466       458.99707      4355.0373    
      8130   611.00517     -917.98094      2112.8278      4348.2466    
      8140   635.06596     -918.87858      3646.7565      4342.0608    
      8150   667.02121     -920.00891      4756.5118      4336.9576    
      8160   575.10098     -917.67145      5471.5396      4333.299     
      8170   586.50434     -918.15927      5462.7556      4331.3084    
      8180   637.00565     -919.72139      5297.4731      4331.0184    
      8190   590.10529     -918.56747      5332.7009      4332.4075    
      8200   561.26494     -917.88528      5039.067       4335.4936    
      8210   627.45182     -919.82467      3888.993       4340.1914    
      8220   657.28862     -920.76124      2751.2933      4346.1941    
      8230   629.51309     -920.10837      1438.2016      4353.1553    
      8240   635.56436     -920.39745     -428.03462      4360.6639    
      8250   634.58342     -920.49059     -2540.5371      4368.1424    
      8260   605.0258      -919.78647     -4400.1781      4374.9229    
      8270   552.92749     -918.43434     -5695.6746      4380.4042    
      8280   548.16074     -918.36657     -6826.4679      4384.1309    
      8290   595.9756      -919.74478     -7441.1559      4385.7218    
      8300   593.73878     -919.73568     -6931.8335      4384.9676    
      8310   549.14704     -918.54508     -5734.8051      4381.9929    
      8320   592.62717     -919.78649     -4794.516       4377.1296    
      8330   661.05633     -921.7248      -3535.1639      4370.6829    
      8340   593.77964     -919.90625     -1339.6751      4363.0642    
      8350   567.57893     -919.21509      715.31474      4354.9362    
      8360   646.48781     -921.43636      2082.5404      4346.9327    
      8370   581.93818     -919.67354      3686.012       4339.5196    
      8380   541.30871     -918.56119      4968.3851      4333.187     
      8390   620.66791     -920.76933      5853.1486      4328.3454    
      8400   601.62602     -920.24931      6641.4822      4325.2908    
      8410   536.44285     -918.44971      6996.4114      4324.2793    
      8420   600.40094     -920.23027      6561.3634      4325.4365    
      8430   616.40737     -920.67814      6022.9366      4328.6753    
      8440   566.24578     -919.2927       5185.2749      4333.8565    
      8450   620.87299     -920.81573      3278.3022      4340.7222    
      8460   586.7108      -919.85992      1476.539       4348.7395    
      8470   554.86637     -918.9532      -404.12372      4357.3484    
      8480   607.26872     -920.35559     -2587.7326      4365.9499    
      8490   582.24896     -919.58005     -4187.519       4373.8704    
      8500   552.06062     -918.63983     -5317.0933      4380.5746    
      8510   648.66441     -921.19064     -6458.528       4385.658     
      8520   633.9169      -920.63259     -6829.4405      4388.7515    
      8530   590.19634     -919.28635     -6838.0401      4389.6929    
      8540   675.44852     -921.51963     -7180.0731      4388.4268    
      8550   634.57581     -920.2604      -6716.2564      4384.8557    
      8560   500.68198     -916.44057     -5496.5852      4379.1026    
      8570   541.55487     -917.44678     -4101.521       4371.5239    
      8580   605.20735     -919.00726     -2028.6013      4362.5723    
      8590   595.32264     -918.48284      878.54549      4352.9114    
      8600   636.12465     -919.34515      3459.9028      4343.4287    
      8610   652.19542     -919.51143      5428.3707      4334.9348    
      8620   617.00574     -918.28573      7217.3716      4328.0718    
      8630   678.21772     -919.77143      8298.5091      4323.3917    
      8640   685.87708     -919.81502      9061.9231      4321.264     
      8650   631.19001     -918.19834      9114.5607      4321.942     
      8660   696.71053     -919.97616      7689.8293      4325.4531    
      8670   683.39037     -919.61883      5747.2082      4331.4211    
      8680   569.04807     -916.49108      3884.1542      4339.2924    
      8690   574.57128     -916.68027      1757.5639      4348.5012    
      8700   653.53294     -918.89052     -595.76316      4358.3934    
      8710   652.40492     -918.88703     -2555.1276      4368.2487    
      8720   606.73651     -917.66167     -4390.3725      4377.4251    
      8730   613.28375     -917.89059     -6216.8739      4385.3122    
      8740   645.14967     -918.83943     -7728.8537      4391.3031    
      8750   634.6797      -918.64855     -8412.6335      4394.8947    
      8760   614.5517      -918.22348     -8555.9347      4395.8204    
      8770   653.58315     -919.48361     -8317.3811      4393.999     
      8780   654.61513     -919.74748     -7453.7229      4389.4886    
      8790   588.8941      -918.18387     -5850.2736      4382.5538    
      8800   587.79433     -918.40492     -3909.9904      4373.6876    
      8810   627.90215     -919.77591     -1886.6851      4363.4966    
      8820   591.43856     -919.0075       704.15529      4352.6461    
      8830   592.62738     -919.24689      3262.2947      4341.9409    
      8840   651.75462     -921.08783      5596.5957      4332.1865    
      8850   629.86515     -920.67835      7740.7713      4324.1232    
      8860   595.46394     -919.90409      8751.0094      4318.3945    
      8870   586.31795     -919.80895      9003.826       4315.3419    
      8880   583.05364     -919.85727      8738.2471      4315.0647    
      8890   556.86638     -919.24665      8232.4266      4317.5157    
      8900   527.94583     -918.5262       7237.801       4322.5601    
      8910   565.45133     -919.61865      5541.6287      4329.9146    
      8920   605.85686     -920.77079      3567.396       4339.095     
      8930   574.59798     -919.91622      1533.597       4349.5148    
      8940   587.5788      -920.26944     -960.71598      4360.5315    
      8950   633.64117     -921.52326     -3555.7656      4371.367     
      8960   589.66019     -920.27136     -5799.5231      4381.193     
      8970   536.97349     -918.76634     -7659.5593      4389.2667    
      8980   577.97583     -919.84761     -9067.8305      4394.9593    
      8990   608.56329     -920.63715     -9499.5924      4397.8001    
      9000   608.3178      -920.59208     -9146.2655      4397.612     
      9010   602.5899      -920.41672     -8355.1632      4394.4789    
      9020   600.67728     -920.36208     -7287.758       4388.6348    
      9030   610.13226     -920.62994     -5620.8169      4380.4265    
      9040   602.03713     -920.41084     -3415.168       4370.3855    
      9050   545.99348     -918.84272     -1066.015       4359.2113    
      9060   542.76625     -918.70767      959.49273      4347.6418    
      9070   552.55788     -918.88942      3157.788       4336.3393    
      9080   514.20024     -917.68899      5999.7378      4326.009     
      9090   557.36927     -918.70781      8719.6691      4317.5178    
      9100   657.60252     -921.27293      10430.496      4311.6852    
      9110   633.69603     -920.40885      11529.791      4309.0614    
      9120   643.35368     -920.53449      11477.339      4309.9819    
      9130   665.36567     -921.04852      10269.643      4314.4551    
      9140   608.38209     -919.41415      8430.5498      4322.1574    
      9150   606.70853     -919.33287      5737.1695      4332.5447    
      9160   680.3982      -921.33877      2431.0867      4344.812     
      9170   607.92078     -919.28405     -711.18736      4357.9601    
      9180   554.92586     -917.75921     -3966.8825      4370.9825    
      9190   584.88882     -918.50009     -6925.133       4382.8397    
      9200   553.75671     -917.51315     -8734.1764      4392.5823    
      9210   579.65569     -918.09476     -9903.4828      4399.5799    
      9220   660.69674     -920.19578     -10663.24       4403.4214    
      9230   629.63875     -919.20447     -10611.227      4403.8499    
      9240   597.70853     -918.22268     -9774.914       4400.8692    
      9250   638.19952     -919.25695     -8619.582       4394.7308    
      9260   593.87467     -917.92769     -6708.2837      4385.8292    
      9270   566.56847     -917.05007     -4137.0492      4374.7861    
      9280   665.14882     -919.60101     -1191.0426      4362.4333    
      9290   694.59507     -920.1651       2273.656       4349.7289    
      9300   659.42769     -918.92792      5572.1018      4337.7564    
      9310   689.84175     -919.51511      7661.3734      4327.5173    
      9320   677.79602     -918.93953      9109.5365      4319.6703    
      9330   671.99373     -918.58339      10179.022      4314.6604    
      9340   638.71495     -917.50801      10446.683      4312.7988    
      9350   582.98122     -915.84445      9838.6909      4314.165     
      9360   658.98555     -917.84819      8633.2887      4318.5834    
      9370   703.55913     -918.98984      7191.9933      4325.7055    
      9380   607.90245     -916.27843      5503.3246      4335.1032    
      9390   624.11401     -916.68689      2852.7646      4346.2398    
      9400   695.44632     -918.61234     -249.99548      4358.3053    
      9410   629.96729     -916.74954     -2603.2908      4370.3571    
      9420   637.04716     -916.91704     -4975.4682      4381.6102    
      9430   699.71976     -918.64766     -7374.8749      4391.2917    
      9440   681.13068     -918.17952     -8892.7354      4398.6412    
      9450   678.54684     -918.23422     -9756.7934      4403.1447    
      9460   678.1923      -918.44171     -10076.336      4404.5111    
      9470   636.16415     -917.56368     -9763.6701      4402.6404    
      9480   660.82102     -918.60018     -9146.0272      4397.6304    
      9490   642.51518     -918.50068     -7547.1534      4389.7188    
      9500   566.43903     -916.76076     -5036.8201      4379.44      
      9510   623.37577     -918.66422     -2431.1782      4367.5987    
      9520   662.59651     -920.06338      311.78065      4355.0481    
      9530   604.03085     -918.69018      3405.6202      4342.6787    
      9540   657.75749     -920.38843      6015.1376      4331.4379    
      9550   658.00229     -920.59844      8028.7048      4322.1282    
      9560   541.03051     -917.5077       9449.9615      4315.3571    
      9570   557.10963     -918.06421      9841.0328      4311.5266    
      9580   626.94335     -920.11143      9715.9374      4310.7508    
      9590   572.14557     -918.70147      9552.5926      4312.9938    
      9600   563.82643     -918.57293      8616.4907      4318.1795    
      9610   640.86833     -920.81476      6963.8916      4326.0214    
      9620   642.12957     -920.96601      5140.5874      4336.0292    
      9630   605.92013     -920.08002      2514.5465      4347.6192    
      9640   616.34582     -920.47318     -936.79495      4359.9647    
      9650   599.59939     -920.08898     -3965.0587      4372.0073    
      9660   569.86448     -919.3203      -6307.8831      4382.7789    
      9670   568.08597     -919.30728     -8149.6104      4391.5129    
      9680   583.93651     -919.77317     -9471.7733      4397.6125    
      9690   614.42303     -920.65766     -10283.382      4400.6513    
      9700   594.12224     -920.15557     -10225.556      4400.3897    
      9710   543.35974     -918.81794     -9278.3255      4396.8668    
      9720   541.17905     -918.81683     -7813.721       4390.4047    
      9730   593.19087     -920.30153     -6111.3036      4381.4994    
      9740   604.24709     -920.63494     -3746.4927      4370.745     
      9750   559.8124      -919.40634     -970.86246      4358.9173    
      9760   577.91891     -919.88185      1618.8858      4346.8983    
      9770   599.73061     -920.42624      4193.8936      4335.5152    
      9780   571.53131     -919.55825      6770.9213      4325.5648    
      9790   599.61794     -920.23737      8897.0686      4317.8146    
      9800   654.90283     -921.67234      10261.515      4312.8839    
      9810   628.05212     -920.85852      10754.735      4311.1558    
      9820   588.35947     -919.7253       10033.896      4312.7377    
      9830   572.95027     -919.27727      8494.1051      4317.3939    
      9840   546.46117     -918.5075       6763.4171      4324.6524    
      9850   573.77925     -919.19967      4664.3266      4333.9597    
      9860   601.15548     -919.84833      2313.7294      4344.6592    
      9870   576.48797     -919.01277     -129.55701      4356.0152    
      9880   605.24931     -919.62174     -2690.4685      4367.2487    
      9890   624.82824     -919.93201     -4849.1327      4377.5574    
      9900   607.08126     -919.19376     -6392.9888      4386.2577    
      9910   644.35043     -919.98108     -7726.9988      4392.845     
      9920   654.75193     -920.03167     -8553.101       4396.9117    
      9930   616.39652     -918.76706     -8850.4453      4398.2132    
      9940   639.89536     -919.25482     -9029.1905      4396.6668    
      9950   642.62861     -919.19216     -8459.2648      4392.2707    
      9960   570.78674     -917.09023     -6800.6852      4385.2596    
      9970   570.27379     -916.97057     -4769.7901      4376.1876    
      9980   627.71172     -918.42953     -2554.5798      4365.7369    
      9990   636.2315      -918.51191      245.83063      4354.6528    
     10000   642.7939      -918.5424       3103.1739      4343.8186    
     10010   650.32222     -918.60798      5659.1429      4334.1182    
     10020   643.50296     -918.29577      7713.7345      4326.3213    
     10030   675.1959      -919.08843      8700.3255      4321.0085    
     10040   684.3251      -919.30937      8982.357       4318.4511    
     10050   644.24902     -918.22458      9109.522       4318.7128    
     10060   655.4394      -918.61529      8404.2821      4321.7714    
     10070   660.76042     -918.89432      6860.0838      4327.3806    
     10080   597.16684     -917.29115      4977.19        4335.0509    
     10090   595.35182     -917.40555      2941.4667      4344.1838    
     10100   688.33112     -920.18419      564.32063      4354.1222    
     10110   636.25709     -918.98948     -1495.8852      4364.1339    
     10120   549.69349     -916.82922     -3733.3759      4373.5463    
     10130   617.54157     -918.96093     -6126.768       4381.6478    
     10140   651.46952     -920.20494     -7506.3937      4387.7241    
     10150   579.43758     -918.52374     -7894.5582      4391.3519    
     10160   580.29983     -918.84121     -8015.2666      4392.4157    
     10170   635.37274     -920.6701      -7935.3022      4390.9125    
     10180   592.19535     -919.75164     -6907.3894      4386.9366    
     10190   572.55731     -919.42984     -5494.8728      4380.8424    
     10200   601.39288     -920.40663     -3865.9143      4373.1215    
     10210   600.58901     -920.51944     -2017.6004      4364.3256    
     10220   598.2154      -920.5502       32.210431      4355.0664    
     10230   604.69621     -920.7977       2088.7818      4345.9945    
     10240   579.29506     -920.13105      4049.7516      4337.7502    
     10250   595.7058      -920.60675      5511.2491      4330.9122    
     10260   595.58342     -920.61677      6472.7305      4325.9021    
     10270   538.62834     -919.04086      7015.9637      4322.9816    
     10280   521.91685     -918.56395      6916.5632      4322.2708    
     10290   559.41169     -919.56939      6461.2665      4323.7064    
     10300   572.19364     -919.87071      6092.9493      4327.1257    
     10310   599.39043     -920.56484      5383.2632      4332.3781    
     10320   658.28271     -922.14335      3737.2033      4339.1982    
     10330   586.76323     -920.11071      2007.3667      4347.0842    
     10340   546.4133      -918.94137     -79.78973       4355.4678    
     10350   587.05114     -919.98942     -2119.8519      4363.7002    
     10360   599.33961     -920.2259      -3763.9997      4371.1489    
     10370   572.38291     -919.36397     -5032.7358      4377.3003    
     10380   604.77994     -920.14468     -5888.4918      4381.7685    
     10390   634.06175     -920.83615     -6196.4979      4384.3105    
     10400   609.25606     -920.04511     -6127.2473      4384.8546    
     10410   589.93185     -919.42232     -6083.1017      4383.4455    
[...]
     47810   527.3588      -920.68675      404.27378      4352.6463    
     47820   532.0223      -920.85824      1203.4952      4348.3118    
     47830   531.66809     -920.85268      1779.5797      4344.3007    
     47840   527.79923     -920.71379      2579.7884      4340.8097    
     47850   564.1839      -921.66222      3471.7403      4338.0935    
     47860   558.11758     -921.40771      4111.1725      4336.4335    
     47870   534.01043     -920.63618      4309.9726      4336.0434    
     47880   565.36963     -921.38303      4000.6539      4337.0008    
     47890   580.08166     -921.64337      3524.9599      4339.2427    
     47900   572.21269     -921.26895      2777.4846      4342.6374    
     47910   552.24566     -920.54975      1850.7311      4346.9766    
     47920   563.934       -920.69533      561.69906      4351.9764    
     47930   569.93144     -920.66249     -634.3085       4357.2569    
     47940   570.93838     -920.48524     -1796.7368      4362.438     
     47950   569.51885     -920.23868     -2894.2788      4367.1469    
     47960   547.72719     -919.43222     -3729.3736      4371.0281    
     47970   556.9383      -919.49187     -4376.9804      4373.7896    
     47980   598.41332     -920.45052     -4662.2724      4375.2082    
     47990   626.83083     -921.06749     -4470.2175      4375.1686    
     48000   593.19095     -919.99938     -3763.0882      4373.7097    
     48010   599.3086      -920.06628     -3214.1365      4371.0118    
     48020   598.30258     -919.94994     -2700.4802      4367.2353    
     48030   562.0311      -918.86591     -1815.9874      4362.5403    
     48040   545.78519     -918.33343     -526.84224      4357.1942    
     48050   572.65284     -918.9803       984.9077       4351.5957    
     48060   625.71874     -920.34155      2516.2588      4346.2147    
     48070   650.42068     -920.92745      3929.4918      4341.5368    
     48080   635.49947     -920.44506      4794.8326      4338.009     
     48090   624.83162     -920.10987      5080.9264      4335.9247    
     48100   633.87865     -920.34804      4707.7594      4335.3966    
     48110   573.85999     -918.68167      4207.5187      4336.3559    
     48120   543.34349     -917.82805      3586.6964      4338.6713    
     48130   592.29268     -919.16153      2780.5666      4342.1755    
     48140   616.06771     -919.78526      1852.2647      4346.6439    
     48150   596.06156     -919.19511      876.76179      4351.8063    
     48160   603.90332     -919.37815     -340.13449      4357.3612    
     48170   605.73279     -919.38918     -1451.4961      4362.9418    
     48180   612.89707     -919.54766     -2457.4755      4368.189     
     48190   638.35767     -920.22138     -3514.8333      4372.7645    
     48200   611.28471     -919.45018     -4309.6712      4376.3223    
     48210   596.23187     -919.0224      -4889.2725      4378.577     
     48220   642.56371     -920.31091     -5220.3318      4379.3113    
     48230   609.41879     -919.41254     -5043.3028      4378.3929    
     48240   552.79588     -917.86794     -4419.7279      4375.8446    
     48250   604.71837     -919.33225     -3671.4914      4371.823     
     48260   614.54031     -919.62275     -2298.1654      4366.5608    
     48270   591.97198     -919.01654     -770.39902      4360.4629    
     48280   604.45832     -919.38055      607.39538      4353.9964    
     48290   627.64228     -920.04394      2030.6939      4347.6018    
     48300   619.0955      -919.83812      3490.2484      4341.7352    
     48310   622.31403     -919.98087      4509.8243      4336.8542    
     48320   582.4262      -918.94776      5171.2683      4333.3015    
     48330   546.09711     -918.01317      5609.0936      4331.3127    
     48340   610.9541      -919.89531      5725.027       4331.0545    
     48350   639.71918     -920.80398      5493.9637      4332.5967    
     48360   600.86848     -919.87067      5024.8707      4335.9143    
     48370   596.38318     -919.91133      3784.4404      4340.8843    
     48380   619.09092     -920.72893      1911.6425      4347.1586    
     48390   592.50086     -920.18885      28.32653       4354.1915    
     48400   570.92028     -919.78246     -1709.1488      4361.3995    
     48410   553.38215     -919.46914     -3149.279       4368.2346    
     48420   532.35151     -919.02849     -4466.153       4374.213     
     48430   560.10438     -919.91469     -5454.0874      4378.8936    
     48440   612.3154      -921.48035     -5979.0334      4381.9255    
     48450   597.21879     -921.1866      -5871.0049      4383.1092    
     48460   580.28828     -920.84513     -5748.4629      4382.421     
     48470   587.0004      -921.16169     -5659.5697      4379.8626    
     48480   542.55691     -920.04885     -5024.9386      4375.4476    
     48490   502.38063     -919.01842     -3711.3982      4369.356     
     48500   559.19297     -920.64556     -2085.3283      4361.9739    
     48510   579.0955      -921.21486     -124.79473      4353.8097    
     48520   563.04033     -920.76113      1939.8993      4345.4734    
     48530   573.57147     -921.01988      3959.9392      4337.6179    
     48540   585.14496     -921.28424      5806.4838      4330.8879    
     48550   585.38511     -921.22276      6988.4726      4325.8641    
     48560   571.8183      -920.77132      7407.741       4322.9419    
     48570   564.94096     -920.49778      7258.6919      4322.2899    
     48580   563.57878     -920.36105      6732.0311      4323.9047    
     48590   569.2254      -920.39694      5943.4876      4327.6708    
     48600   548.9995      -919.68546      4729.6254      4333.3744    
     48610   546.42985     -919.4287       3124.2262      4340.6775    
     48620   593.10165     -920.48385      1242.8592      4349.1087    
     48630   590.09663     -920.11545     -508.22004      4358.1038    
     48640   579.00858     -919.51332     -2242.3081      4367.1079    
     48650   621.86418     -920.3982      -4048.1011      4375.5587    
     48660   643.67755     -920.70584     -5788.587       4382.8598    
     48670   604.32659     -919.36523     -7090.7792      4388.4335    
     48680   603.53        -919.14654     -8069.6133      4391.8134    
     48690   593.05487     -918.69553     -8107.9459      4392.6606    
     48700   571.98027     -917.9839      -7262.6147      4390.9225    
     48710   638.95582     -919.74003     -6416.1254      4386.8104    
     48720   675.65354     -920.68689     -5424.8077      4380.5781    
     48730   616.25347     -919.01252     -3698.402       4372.5453    
     48740   561.14571     -917.46769     -1476.973       4363.2464    
     48750   591.14312     -918.26748      617.39757      4353.3677    
     48760   629.14372     -919.27299      2754.413       4343.5818    
     48770   634.21943     -919.36889      5052.6843      4334.5733    
     48780   611.54562     -918.70518      7127.052       4327.0616    
     48790   610.91727     -918.66469      8590.8152      4321.6973    
     48800   648.34518     -919.70329      9151.2011      4318.9489    
     48810   653.05576     -919.87388      8765.9738      4319.015     
     48820   614.96139     -918.8927       7858.623       4321.8217    
     48830   606.81413     -918.76166      6662.9867      4327.13      
     48840   613.68889     -919.05356      5122.1133      4334.6029    
     48850   618.82703     -919.30306      3027.5917      4343.7849    
     48860   590.41294     -918.61012      578.98589      4354.0462    
     48870   619.78987     -919.50902     -1815.4308      4364.6352    
     48880   646.81075     -920.34548     -4089.7629      4374.7891    
     48890   612.71934     -919.49406     -6191.5624      4383.7624    
     48900   590.62725     -918.97837     -7899.5355      4390.8592    
     48910   589.16881     -919.0381      -9079.9561      4395.4967    
     48920   580.10682     -918.89588     -9344.3286      4397.2698    
     48930   567.33464     -918.6538      -8821.6139      4396.059     
     48940   594.38078     -919.52441     -7912.5632      4391.9964    
     48950   600.77985     -919.82911     -6508.7549      4385.3628    
     48960   609.17582     -920.19516     -4580.5479      4376.6046    
     48970   613.82626     -920.46243     -2357.1173      4366.3317    
     48980   575.44569     -919.52396      179.30361      4355.2607    
     48990   571.50619     -919.51663      2718.1252      4344.1931    
     49000   618.59979     -920.91723      4865.9025      4333.9203    
     49010   609.44187     -920.76759      6889.0458      4325.1311    
     49020   567.37467     -919.71108      8573.9611      4318.4495    
     49030   589.20619     -920.44323      9626.3332      4314.3969    
     49040   607.399       -921.11133      9734.5026      4313.3006    
     49050   562.49106     -920.06316      9078.1098      4315.2156    
     49060   514.56657     -918.93347      8033.6248      4319.9748    
     49070   543.72256     -919.94134      6308.4944      4327.2701    
     49080   574.02767     -920.98551      4143.3282      4336.6021    
     49090   581.19532     -921.39425      1606.2323      4347.3154    
     49100   564.59484     -921.14344     -1164.6784      4358.6248    
     49110   537.5884      -920.58715     -3703.384       4369.6652    
     49120   542.3005      -920.89367     -5844.8093      4379.6186    
     49130   571.61155     -921.88605     -7653.8809      4387.775     
     49140   551.94787     -921.52811     -8902.3684      4393.5355    
     49150   511.54667     -920.5838      -9484.3219      4396.4758    
     49160   540.91043     -921.56885     -9699.1127      4396.3777    
     49170   575.73403     -922.71959     -9284.1595      4393.1675    
     49180   517.20494     -921.27368     -7937.9689      4386.983     
     49190   476.22441     -920.2741      -5966.7002      4378.2515    
     49200   519.78424     -921.57451     -3644.8403      4367.6055    
     49210   535.02097     -922.03542     -699.24393      4355.8093    
     49220   523.15531     -921.68553      2358.8487      4343.7927    
     49230   564.00102     -922.74635      4932.3247      4332.5072    
     49240   551.73829     -922.2844       7235.5113      4322.7672    
     49250   515.8007      -921.13093      8884.5669      4315.2705    
     49260   528.34154     -921.28162      9704.5667      4310.5146    
     49270   526.26986     -920.97424      10148.367      4308.7614    
     49280   526.04343     -920.6759       10064.428      4310.1447    
     49290   565.734       -921.44309      9108.6349      4314.6392    
     49300   565.28324     -921.07639      7609.4008      4321.9764    
     49310   556.5651      -920.5174       5596.4875      4331.7131    
     49320   609.97285     -921.71306      2760.8302      4343.2289    
     49330   607.55304     -921.39395     -221.81795      4355.6644    
     49340   550.05308     -919.59575     -2946.0005      4368.0892    
     49350   566.57388     -919.87025     -5799.1585      4379.6114    
     49360   579.91932     -920.05435     -8104.6098      4389.3254    
     49370   544.43231     -918.89701     -9492.9394      4396.4776    
     49380   566.76898     -919.36141     -10307.392      4400.5904    
     49390   610.84078     -920.44053     -10378.895      4401.4002    
     49400   599.60618     -920.01312     -9695.2088      4398.8829    
     49410   586.82225     -919.57238     -8607.5772      4393.2552    
     49420   594.25446     -919.70397     -6916.0462      4384.8897    
     49430   573.34014     -919.04394     -4371.4373      4374.359     
     49440   560.66704     -918.59058     -1376.2361      4362.4872    
     49450   617.4223      -920.02987      1424.0012      4350.2251    
     49460   655.05832     -920.91669      4092.9861      4338.4688    
     49470   608.24538     -919.46711      6803.0073      4328.0594    
     49480   624.42014     -919.78293      8781.5619      4319.8032    
     49490   650.47618     -920.39054      9898.886       4314.2953    
     49500   619.4618      -919.45464      10139.157      4311.8596    
     49510   567.13399     -917.95906      9682.1851      4312.5601    
     49520   558.13475     -917.67279      8835.7955      4316.2602    
     49530   595.30516     -918.65885      7409.1736      4322.6925    
     49540   627.6731      -919.50142      5362.1735      4331.4204    
     49550   654.06514     -920.18251      2987.3466      4341.8216    
     49560   600.03286     -918.63473      624.71274      4353.1658    
     49570   600.56658     -918.59548     -1734.0256      4364.707     
     49580   651.36993     -919.93734     -4050.1938      4375.6922    
     49590   649.02064     -919.81176     -6171.0518      4385.3783    
     49600   612.26017     -918.75324     -8087.5026      4393.0765    
     49610   598.01241     -918.33635     -9530.9343      4398.1697    
     49620   605.82363     -918.54816     -9982.6777      4400.2096    
     49630   618.15174     -918.91043     -9717.2644      4399.0465    
     49640   609.48594     -918.71475     -8678.9093      4394.787     
     49650   610.06581     -918.79488     -7116.9212      4387.7784    
     49660   630.73231     -919.44441     -4960.9142      4378.5554    
     49670   628.13545     -919.46028     -2343.3131      4367.8292    
     49680   587.57129     -918.41552      493.64071      4356.4511    
     49690   625.05528     -919.53378      2661.1023      4345.3003    
     49700   636.63202     -919.94549      4655.1282      4335.0729    
     49710   610.86736     -919.33949      6784.5325      4326.3909    
     49720   591.34142     -918.92365      8465.3881      4319.881     
     49730   584.20924     -918.8666       9243.6433      4316.0274    
     49740   597.48825     -919.40017      9106.7258      4315.0482    
     49750   604.91536     -919.80074      8310.3214      4316.8821    
     49760   589.42558     -919.5851       7719.0711      4321.3028    
     49770   597.11991     -920.02483      6451.2117      4328.0922    
     49780   620.18056     -920.90359      4336.6199      4336.8511    
     49790   614.25243     -920.98322      1810.4082      4346.9319    
     49800   571.13078     -920.0077      -602.43855      4357.555     
     49810   564.08076     -919.99248     -3052.7458      4367.9479    
     49820   562.6454      -920.09844     -5331.2478      4377.3347    
     49830   526.86627     -919.20554     -7121.8621      4384.9925    
     49840   548.26226     -919.86935     -8316.4611      4390.3493    
     49850   570.66448     -920.54321     -8722.721       4393.0341    
     49860   599.03812     -921.38448     -8600.7541      4392.9205    
     49870   605.89266     -921.63961     -8030.1141      4390.0666    
     49880   560.05642     -920.43893     -7038.8088      4384.6771    
     49890   492.82076     -918.61596     -5334.2934      4377.1096    
     49900   557.25835     -920.41002     -3288.5827      4367.9231    
     49910   607.75658     -921.77485     -898.76338      4357.794     
     49920   582.15596     -921.00671      1631.4494      4347.4891    
     49930   566.67274     -920.49972      3880.5911      4337.7955    
     49940   588.00491     -920.99224      5761.6003      4329.4077    
     49950   583.76445     -920.75857      7376.3457      4322.8968    
     49960   568.41702     -920.21325      8381.0949      4318.7247    
     49970   552.96089     -919.65827      8656.5625      4317.1744    
     49980   567.70763     -919.92913      8134.5844      4318.3034    
     49990   583.80255     -920.21736      7194.9224      4321.9424    
     50000   579.08123     -919.91106      6035.3524      4327.7917    
Loop time of 12.8951 on 1 procs for 50000 steps with 216 atoms

Performance: 335.010 ns/day, 0.072 hours/ns, 3877.431 timesteps/s, 837.525 katom-step/s
98.9% CPU use with 1 MPI tasks x 1 OpenMP threads

MPI task timing breakdown:
Section |  min time  |  avg time  |  max time  |%varavg| %total
---------------------------------------------------------------
Pair    | 12.35      | 12.35      | 12.35      |   0.0 | 95.77
Neigh   | 0          | 0          | 0          |   0.0 |  0.00
Comm    | 0.14017    | 0.14017    | 0.14017    |   0.0 |  1.09
Output  | 0.039593   | 0.039593   | 0.039593   |   0.0 |  0.31
Modify  | 0.33043    | 0.33043    | 0.33043    |   0.0 |  2.56
Other   |            | 0.03469    |            |       |  0.27

Nlocal:            216 ave         216 max         216 min
Histogram: 1 0 0 0 0 0 0 0 0 0
Nghost:            950 ave         950 max         950 min
Histogram: 1 0 0 0 0 0 0 0 0 0
Neighs:              0 ave           0 max           0 min
Histogram: 1 0 0 0 0 0 0 0 0 0
FullNghs:         7344 ave        7344 max        7344 min
Histogram: 1 0 0 0 0 0 0 0 0 0

Total # of neighbors = 7344
Ave neighs/atom = 34
Neighbor list builds = 0
Dangerous builds = 0


min_style cg
minimize 1e-10 1e-10 5000 10000
Per MPI rank memory allocation (min/avg/max) = 5.612 | 5.612 | 5.612 Mbytes
   Step          Temp          PotEng         Press          Volume    
     50000   579.08123     -919.91106      6035.3524      4327.7917    
     50010   579.08123     -936.68774      3329.2181      4327.7917    
     50020   579.08123     -936.70502      3329.7166      4327.7917    
     50028   579.08123     -936.70505      3329.7195      4327.7917    
Loop time of 0.00701071 on 1 procs for 28 steps with 216 atoms

99.3% CPU use with 1 MPI tasks x 1 OpenMP threads

Minimization stats:
  Stopping criterion = energy tolerance
  Energy initial, next-to-last, final = 
      -919.91106073885  -936.705050191515  -936.705050249683
  Force two-norm initial, final = 23.969628 0.00085395137
  Force max component initial, final = 3.165069 0.00010856143
  Final line search alpha, max atom move = 1 0.00010856143
  Iterations, force evaluations = 28 54

MPI task timing breakdown:
Section |  min time  |  avg time  |  max time  |%varavg| %total
---------------------------------------------------------------
Pair    | 0.006405   | 0.006405   | 0.006405   |   0.0 | 91.36
Neigh   | 0          | 0          | 0          |   0.0 |  0.00
Comm    | 0.00016016 | 0.00016016 | 0.00016016 |   0.0 |  2.28
Output  | 1.9978e-05 | 1.9978e-05 | 1.9978e-05 |   0.0 |  0.28
Modify  | 0          | 0          | 0          |   0.0 |  0.00
Other   |            | 0.0004255  |            |       |  6.07

Nlocal:            216 ave         216 max         216 min
Histogram: 1 0 0 0 0 0 0 0 0 0
Nghost:            950 ave         950 max         950 min
Histogram: 1 0 0 0 0 0 0 0 0 0
Neighs:              0 ave           0 max           0 min
Histogram: 1 0 0 0 0 0 0 0 0 0
FullNghs:         7596 ave        7596 max        7596 min
Histogram: 1 0 0 0 0 0 0 0 0 0

Total # of neighbors = 7596
Ave neighs/atom = 35.166667
Neighbor list builds = 0
Dangerous builds = 0
variable teng equal "c_eatoms"
variable natoms equal "count(all)"
variable ecoh equal "v_teng/v_natoms"
variable lengthx equal lx/${xdim}
variable lengthx equal lx/3
variable lengthy equal ly/${ydim}
variable lengthy equal ly/3
variable lengthz equal lz/${zdim}
variable lengthz equal lz/3

print "cohesive energy: ${ecoh}"
cohesive energy: -4.33659745485965
print "x_length equals: ${lengthx}"
x_length equals: 5.43209715463409
print "y_length equals: ${lengthy}"
y_length equals: 5.43209715463409
print "z_length equals: ${lengthz}"
z_length equals: 5.43209715463409

variable lp_x equal ${lengthx}
variable lp_x equal 5.43209715463409
variable lp_y equal ${lengthy}
variable lp_y equal 5.43209715463409
variable lp_z equal ${lengthz}
variable lp_z equal 5.43209715463409

variable lp_avg equal "(v_lp_x + v_lp_y + v_lp_z) / 3"

print "lattice parameter equals ${lp_avg}"
lattice parameter equals 5.43209715463409
Total wall time: 0:00:12
