

# ------------------ Initialization ------------------
units           metal
boundary        p p p
atom_style      atomic

# ------------------ Geometry Generation -------------
# Silicon diamond cubic lattice constant is 5.431 Angstroms

variable pwd_path getenv PWD

variable structure_file string ../structures/si_structure.txt

read_data ../structures/si_structure.txt
Reading data file ...
  orthogonal box = (0 0 0) to (8 8 8)
  1 by 1 by 1 MPI processor grid
  reading atoms ...
  64 atoms
  read_data CPU = 0.000 seconds

# ------------------ Interatomic Potential -----------
# Using the standard Stillinger-Weber (SW) potential
pair_style      sw
pair_coeff      * * ../potentials/Si.sw Si
Reading sw potential file ../potentials/Si.sw with DATE: 2007-06-11


# ------------------ Compute -----------------
compute eng all pe/atom 	# a variable named 'eng' is defined to store the potential energy for each atom
compute eatoms all reduce sum c_eng  #a variable named 'eatoms' is defined to store the sum of all 'eng' values
compute new all temp


# ------------------ Energy Minimization -------------
# Relax the structure to remove any initial overlapping/strain
thermo          10
thermo_style    custom step temp pe press vol
minimize        1.0e-6 1.0e-8 1000 10000
Neighbor list info ...
  update: every = 1 steps, delay = 0 steps, check = yes
  max neighbors/atom: 2000, page size: 100000
  master list distance cutoff = 5.77118
  ghost atom cutoff = 5.77118
  binsize = 2.88559, bins = 3 3 3
  1 neighbor lists, perpetual/occasional/extra = 1 0 0
  (1) pair sw, perpetual
      attributes: full, newton on
      pair build: full/bin/atomonly
      stencil: full/bin/3d
      bin: standard
Per MPI rank memory allocation (min/avg/max) = 4.336 | 4.336 | 4.336 Mbytes
   Step          Temp          PotEng         Press          Volume    
         0   0              1311.9493      21641420       512          
         1   0              1311.9493      21641420       512          
Loop time of 0.00334048 on 1 procs for 1 steps with 64 atoms

96.9% CPU use with 1 MPI tasks x 1 OpenMP threads

Minimization stats:
  Stopping criterion = energy tolerance
  Energy initial, next-to-last, final = 
      1311.94930615088   1311.94930615088   1311.94930615088
  Force two-norm initial, final = 1.7336757e-13 1.9618048e-13
  Force max component initial, final = 3.907985e-14 3.9968029e-14
  Final line search alpha, max atom move = 1 3.9968029e-14
  Iterations, force evaluations = 1 2

MPI task timing breakdown:
Section |  min time  |  avg time  |  max time  |%varavg| %total
---------------------------------------------------------------
Pair    | 0.0033144  | 0.0033144  | 0.0033144  |   0.0 | 99.22
Neigh   | 0          | 0          | 0          |   0.0 |  0.00
Comm    | 7.693e-06  | 7.693e-06  | 7.693e-06  |   0.0 |  0.23
Output  | 0          | 0          | 0          |   0.0 |  0.00
Modify  | 0          | 0          | 0          |   0.0 |  0.00
Other   |            | 1.844e-05  |            |       |  0.55

Nlocal:             64 ave          64 max          64 min
Histogram: 1 0 0 0 0 0 0 0 0 0
Nghost:            801 ave         801 max         801 min
Histogram: 1 0 0 0 0 0 0 0 0 0
Neighs:              0 ave           0 max           0 min
Histogram: 1 0 0 0 0 0 0 0 0 0
FullNghs:         6272 ave        6272 max        6272 min
Histogram: 1 0 0 0 0 0 0 0 0 0

Total # of neighbors = 6272
Ave neighs/atom = 98
Neighbor list builds = 0
Dangerous builds = 0

# ------------------ Equilibration (NVT/NPT) ---------
reset_timestep  0
velocity        all create 300.0 87287 loop geom

# Reference timestep for metal units with Silicon is typically 1-2 fs
timestep        0.001

# Run NPT to fix temperature at 300K and pressure at 0 Bar
fix             1 all npt temp 300.0 300.0 0.1 iso 1.0 1.0 1.0

# Output settings
dump 1 all custom 5000 ../results/lattice_parameter/si_out.dat mass type xs ys zs
dump_modify 1 sort id

variable first_run_step equal 25000

# Run the simulation
run ${first_run_step}
run 25000
Per MPI rank memory allocation (min/avg/max) = 3.211 | 3.211 | 3.211 Mbytes
   Step          Temp          PotEng         Press          Volume    
         0   300            1311.9493      21646516       512          
        10   114.039       -27.597948      3800523.4      725.15153    
        20   74.520547     -224.7583       599384.23      905.14238    
        30   40.910757     -254.23252      308723.88      1018.9134    
        40   69.802442     -266.26669      203767.83      1092.8272    
        50   51.059931     -271.68916      133948.84      1146.2563    
        60   63.144809     -274.59012      87182.94       1187.3999    
        70   68.548903     -276.02756      54538.619      1219.7073    
        80   47.486232     -276.50679      31470.635      1244.8573    
        90   73.399358     -276.97298      15126.209      1263.8891    
       100   90.726338     -277.16303      3987.6065      1277.6187    
       110   78.260966     -277.03005     -3173.4352      1286.8229    
       120   90.412161     -277.07568     -7483.6931      1292.2787    
       130   85.077085     -276.97756     -9479.5183      1294.7404    
       140   57.047134     -276.71419     -9721.9936      1294.9453    
       150   59.041857     -276.71028     -8827.0669      1293.5893    
       160   55.773802     -276.66373     -7005.4566      1291.2916    
       170   58.888253     -276.67013     -4716.5727      1288.6006    
       180   111.37227     -277.05899     -2593.521       1285.9595    
       190   110.52807     -276.99213     -604.62644      1283.6662    
       200   76.654474     -276.66875      1023.1389      1281.9136    
       210   113.19508     -276.91794      1846.0331      1280.787     
       220   128.04967     -276.97087      2177.2492      1280.2439    
       230   91.680805     -276.61674      2228.3151      1280.1839    
       240   109.00421     -276.70714      1818.3867      1280.4871    
       250   104.47798     -276.60943      1389.5453      1281.0063    
       260   72.872696     -276.3053       1037.6213      1281.6254    
       270   119.16664     -276.63187      453.36596      1282.2614    
       280   135.90856     -276.69256      47.368013      1282.8264    
       290   88.463375     -276.2442      -27.360012      1283.2772    
       300   120.27827     -276.44982     -186.79562      1283.6224    
       310   164.89995     -276.73061     -252.90108      1283.8642    
       320   137.58235     -276.42443     -140.34571      1284.0183    
       330   153.61246     -276.48028     -263.71712      1284.115     
       340   189.32551     -276.67828     -393.26733      1284.1502    
       350   163.63606     -276.37568     -313.4203       1284.1201    
       360   138.8006      -276.09645     -400.07052      1284.0445    
       370   118.15176     -275.85972     -549.97147      1283.919     
       380   124.56191     -275.84807     -444.22786      1283.7335    
       390   181.56739     -276.22799     -67.576978      1283.5175    
       400   181.90758     -276.12853      497.24141      1283.3395    
       410   160.53422     -275.86642      825.01162      1283.2788    
       420   219.9652      -276.25387      793.49623      1283.3636    
       430   234.88348     -276.2573       966.49571      1283.5718    
       440   212.73047     -275.97176      946.00713      1283.9042    
       450   246.89103     -276.14391      169.49586      1284.324     
       460   198.62424     -275.64516     -517.66986      1284.6999    
       470   140.59764     -275.09787     -689.05122      1284.9323    
       480   222.292       -275.67871     -701.97636      1285.0123    
       490   254.04745     -275.81684     -446.72064      1284.9688    
       500   211.87966     -275.36707     -69.483696      1284.8651    
       510   267.78606     -275.71754      112.80132      1284.7684    
       520   269.53565     -275.61076      486.86369      1284.7158    
       530   208.94873     -275.01966      699.94066      1284.7572    
       540   277.9885      -275.48438      305.33292      1284.9029    
       550   317.6124      -275.68377      164.05909      1285.0844    
       560   277.94685     -275.25115      310.83764      1285.274     
       570   307.88147     -275.39498      107.46084      1285.4843    
       580   306.59522     -275.28087     -140.74173      1285.6832    
       590   247.1038      -274.70984     -314.97625      1285.8328    
       600   263.52294     -274.76395     -622.72744      1285.9064    
       610   291.02048     -274.89654     -605.19165      1285.8724    
       620   313.07811     -274.98147     -300.02983      1285.7506    
       630   331.0282      -275.03188      217.88079      1285.6058    
       640   295.52237     -274.65714      938.84733      1285.5315    
       650   374.45846     -275.21821      934.06644      1285.6228    
       660   462.90329     -275.85024      454.01469      1285.8575    
       670   299.25307     -274.46307      210.14579      1286.146     
       680   198.22869     -273.61101     -390.64788      1286.4267    
       690   336.97709     -274.69918     -1138.0141      1286.5978    
       700   365.12854     -274.87112     -725.73062      1286.5738    
       710   323.92958     -274.4934      -15.394152      1286.4416    
       720   422.04435     -275.25767      43.333519      1286.3211    
       730   386.66529     -274.9512       328.18814      1286.2374    
       740   297.83622     -274.2272       459.07388      1286.2271    
       750   353.85182     -274.68819     -92.27882       1286.2903    
       760   332.45352     -274.52585     -217.23353      1286.3415    
       770   288.24941     -274.17961      3.7174173      1286.3603    
       780   410.18274     -275.19351     -170.17692      1286.3749    
       790   406.96112     -275.21376     -35.136804      1286.3709    
       800   276.02094     -274.19866      136.33526      1286.3698    
       810   310.79591     -274.52649     -187.73327      1286.3882    
       820   358.25288     -274.96841     -96.346795      1286.3848    
       830   331.02514     -274.81041     -21.790704      1286.3716    
       840   323.80958     -274.81799     -460.16863      1286.3527    
       850   308.45252     -274.75981     -376.27586      1286.2711    
       860   328.83221     -274.9923       106.76714      1286.1483    
       870   394.19933     -275.60919     -67.42578       1286.0555    
       880   325.10467     -275.14552     -467.76752      1285.9657    
       890   213.27032     -274.30338     -455.52635      1285.8195    
       900   260.66544     -274.74094     -363.0439       1285.6178    
       910   280.27813     -274.95467      131.73337      1285.3914    
       920   273.27097     -274.94377      550.39605      1285.2217    
       930   366.0093      -275.75339      330.56227      1285.1622    
       940   337.17337     -275.5887       581.36513      1285.1817    
       950   257.54679     -274.99859      901.26558      1285.3075    
       960   321.31291     -275.57284      116.68547      1285.5591    
       970   293.41438     -275.40822     -629.63277      1285.8045    
       980   171.62782     -274.455       -588.24536      1285.9287    
       990   270.7269      -275.28748     -859.53264      1285.9331    
      1000   354.56609     -276.00611     -1072.1999      1285.7931    
      1010   213.06111     -274.88677     -537.32201      1285.5035    
      1020   179.17899     -274.62477     -112.5239       1285.1582    
      1030   302.746       -275.63753      151.45837      1284.8361    
      1040   324.56292     -275.8206       811.17267      1284.5917    
      1050   271.7887      -275.3981       1270.7571      1284.5204    
      1060   272.83369     -275.41138      1006.5979      1284.6706    
      1070   275.28185     -275.43141      580.79728      1284.9798    
      1080   293.16374     -275.57386      27.697217      1285.3555    
      1090   299.40212     -275.62006     -611.39434      1285.6948    
      1100   235.4996      -275.09354     -976.48196      1285.8975    
      1110   186.44787     -274.68252     -1150.2334      1285.9138    
      1120   227.83613     -274.99725     -1105.7711      1285.7347    
      1130   285.49823     -275.42779     -526.65381      1285.397     
      1140   275.1335      -275.29645      312.98615      1285.0168    
      1150   271.90212     -275.2227       836.41865      1284.735     
      1160   339.91437     -275.72147      998.41961      1284.6301    
      1170   368.99989     -275.89994      1100.6872      1284.7156    
      1180   273.69719     -275.08044      1109.7759      1284.9884    
      1190   243.01557     -274.79653      520.6147       1285.4186    
      1200   321.25902     -275.38892     -368.69087      1285.8905    
      1210   318.56709     -275.31549     -989.60934      1286.2552    
      1220   228.15093     -274.53769     -1358.4203      1286.4158    
      1230   200.37979     -274.27427     -1400.1411      1286.3302    
      1240   278.3095      -274.85621     -866.68556      1286.0231    
      1250   343.75789     -275.31532      19.790718      1285.6099    
      1260   357.76227     -275.35633      797.04904      1285.2504    
      1270   351.48768     -275.24461      1224.0953      1285.0704    
      1280   345.24073     -275.14566      1355.5794      1285.1252    
      1290   347.01771     -275.12188      1176.4237      1285.4121    
      1300   343.96782     -275.0676       467.32724      1285.8714    
      1310   330.96365     -274.94076     -625.74564      1286.3621    
      1320   286.80828     -274.566       -1160.1481      1286.7053    
      1330   255.31099     -274.2946      -968.5205       1286.8266    
      1340   292.00191     -274.57351     -1014.3955      1286.7664    
      1350   306.09353     -274.66361     -1155.7473      1286.5377    
      1360   263.67837     -274.29367     -398.99054      1286.1515    
      1370   359.24268     -275.04411      536.57431      1285.7443    
      1380   466.33116     -275.89098      994.54819      1285.4722    
      1390   366.40907     -275.08154      1309.5127      1285.4092    
      1400   310.19475     -274.64086      1049.6079      1285.5792    
      1410   390.23851     -275.3186       333.05834      1285.9129    
      1420   357.17355     -275.09237     -112.15816      1286.2826    
      1430   259.47148     -274.33833     -750.85636      1286.5979    
      1440   253.11377     -274.31846     -1608.9175      1286.7491    
      1450   240.73296     -274.24203     -1460.8016      1286.6233    
      1460   262.12692     -274.43196     -513.4625       1286.2719    
      1470   389.09543     -275.48492      68.259576      1285.8642    
      1480   388.3582      -275.51734      672.54543      1285.5177    
      1490   295.35503     -274.8052       1125.0243      1285.3289    
      1500   328.41389     -275.1188       858.42651      1285.3494    
      1510   376.05791     -275.56505      480.21773      1285.5223    
      1520   324.43166     -275.21334      230.77474      1285.7712    
      1530   273.27184     -274.85585     -336.57719      1286.0366    
      1540   299.19689     -275.12089     -1047.7657      1286.2188    
      1550   291.54315     -275.11338     -1206.9428      1286.2131    
      1560   213.08021     -274.51646     -895.52477      1286.0087    
      1570   190.56959     -274.35554     -424.98353      1285.6736    
      1580   287.83352     -275.16306     -46.973948      1285.2979    
      1590   352.7337      -275.71         495.56454      1284.958     
      1600   319.40736     -275.46408      1230.3154      1284.7479    
      1610   317.35415     -275.47592      1388.5867      1284.7707    
      1620   339.63559     -275.69216      772.50546      1285.0279    
      1630   309.77517     -275.48866      53.588057      1285.4008    
      1640   274.07052     -275.23521     -548.35024      1285.7549    
      1650   232.77753     -274.9279      -1032.5576      1285.9856    
      1660   194.66033     -274.63351     -1221.4531      1286.0216    
      1670   225.90086     -274.89298     -976.45925      1285.8501    
      1680   291.80329     -275.42641     -479.53578      1285.531     
      1690   306.37999     -275.53836      24.4315        1285.1627    
      1700   280.09234     -275.31773      540.57607      1284.8385    
      1710   272.64251     -275.24822      1050.5566      1284.6449    
      1720   304.54392     -275.4955       1167.7355      1284.6524    
      1730   303.11738     -275.46961      844.04512      1284.8631    
      1740   297.39049     -275.4093       232.61458      1285.2034    
      1750   316.85918     -275.5537      -302.93624      1285.5604    
      1760   295.35625     -275.36576     -699.37894      1285.8395    
      1770   212.81989     -274.68039     -1115.7927      1285.9751    
      1780   209.85262     -274.63758     -1388.6086      1285.907     
      1790   254.39959     -274.96706     -761.86891      1285.6185    
      1800   262.57237     -274.98783      451.6184       1285.2369    
      1810   317.09225     -275.37685      1008.3665      1284.9635    
      1820   375.66564     -275.79059      893.11104      1284.8867    
      1830   323.22408     -275.31132      943.75957      1284.9836    
      1840   285.86893     -274.96921      912.17923      1285.2436    
      1850   363.08316     -275.55918      144.89954      1285.6341    
      1860   332.53371     -275.27547     -641.14861      1286.022     
      1870   209.51144     -274.25043     -997.31306      1286.2752    
      1880   227.39857     -274.37146     -998.47751      1286.34      
      1890   335.24267     -275.20653     -792.60624      1286.2309    
      1900   337.11877     -275.17252     -433.41892      1285.9999    
      1910   299.69004     -274.82928     -109.87271      1285.718     
      1920   313.87053     -274.90983      184.9653       1285.4455    
      1930   322.63373     -274.9467       703.31355      1285.2387    
      1940   330.51303     -274.98014      1213.8911      1285.1802    
      1950   344.46302     -275.06819      1170.152       1285.3379    
      1960   346.53471     -275.06674      537.36407      1285.6858    
      1970   351.82664     -275.1004      -299.7591       1286.1019    
      1980   334.48857     -274.95903     -854.01411      1286.4404    
      1990   276.33751     -274.48957     -1047.6765      1286.6111    
      2000   271.81325     -274.45477     -1192.7435      1286.5874    
      2010   293.84781     -274.63223     -971.40604      1286.3652    
      2020   322.8351      -274.86468     -94.934016      1286.0063    
      2030   371.74461     -275.26437      616.85601      1285.6641    
      2040   335.04864     -274.9788       764.64641      1285.457     
      2050   282.60123     -274.56847      623.09048      1285.4043    
      2060   377.44319     -275.36388      206.89642      1285.4657    
      2070   375.90091     -275.39552      165.61179      1285.5717    
      2080   261.83063     -274.51606      212.73176      1285.7068    
      2090   274.15236     -274.66027     -258.40399      1285.8643    
      2100   307.80107     -274.98591     -517.09017      1285.9715    
      2110   275.00079     -274.77254     -253.55317      1285.9933    
      2120   320.97743     -275.20376     -382.80297      1285.9668    
      2130   351.88702     -275.53228     -616.34995      1285.8779    
      2140   264.33619     -274.89523     -211.90731      1285.7045    
      2150   261.08149     -274.92824      33.138935      1285.5098    
      2160   324.56135     -275.50996     -120.81892      1285.3342    
      2170   282.90574     -275.23688      80.309393      1285.1626    
      2180   230.79287     -274.85859      509.83705      1285.0285    
      2190   290.11399     -275.37853      341.0843       1284.9893    
      2200   317.64205     -275.64084     -34.998429      1285.0151    
      2210   254.92569     -275.16193     -30.704075      1285.0444    
      2220   230.88279     -274.98436      139.6847       1285.0733    
      2230   286.97474     -275.4513       150.89883      1285.1266    
      2240   313.99432     -275.67958     -60.418438      1285.2039    
      2250   258.28033     -275.23269     -213.00217      1285.2708    
      2260   227.33768     -274.98107     -76.774142      1285.3042    
      2270   274.97547     -275.36169      87.224206      1285.3266    
      2280   315.28864     -275.67797     -106.87863      1285.3619    
      2290   289.99964     -275.46171     -433.04026      1285.3788    
      2300   247.94398     -275.10973     -480.51476      1285.3269    
      2310   222.01701     -274.88483     -147.57222      1285.2046    
      2320   246.50506     -275.06327      179.88088      1285.0694    
      2330   302.65629     -275.49074      365.71763      1284.9789    
      2340   310.50281     -275.52311      509.65593      1284.9649    
      2350   284.77149     -275.28692      604.36278      1285.0476    
      2360   316.30307     -275.51921      405.841        1285.2317    
      2370   326.77101     -275.5821      -99.20575       1285.4749    
      2380   245.38046     -274.90279     -669.26926      1285.6867    
      2390   200.66144     -274.52195     -976.81452      1285.7722    
      2400   273.0592      -275.0857      -808.065        1285.689     
      2410   312.29257     -275.36917     -122.86542      1285.4821    
      2420   278.79784     -275.0642       529.06765      1285.2742    
      2430   277.09798     -275.02153      635.25398      1285.1722    
      2440   341.77653     -275.5176       413.00039      1285.1901    
      2450   355.02653     -275.59986      453.08583      1285.2905    
      2460   284.20452     -275.0091       501.14106      1285.4713    
      2470   262.09896     -274.81793     -128.45665      1285.7212    
      2480   282.39053     -274.96824     -642.05807      1285.9366    
      2490   293.7439      -275.04308     -423.01935      1286.0396    
      2500   323.2145      -275.26584     -223.33233      1286.0657    
      2510   341.7195      -275.40404     -694.07909      1286.0444    
      2520   245.35763     -274.61203     -977.85703      1285.9103    
      2530   212.00132     -274.3307      -716.80715      1285.6247    
      2540   313.25044     -275.13581     -72.300659      1285.2421    
      2550   334.25806     -275.28289      898.31362      1284.8852    
      2560   294.56195     -274.94244      1660.8958      1284.7172    
      2570   378.83537     -275.61595      1514.7012      1284.8468    
      2580   415.2376      -275.91328      933.63035      1285.2366    
      2590   286.53363     -274.88174      243.03859      1285.7712    
      2600   230.01853     -274.43229     -901.50876      1286.308     
      2610   275.07233     -274.80244     -1729.6091      1286.6556    
      2620   259.42339     -274.6724      -1694.6408      1286.6895    
      2630   260.3162      -274.67272     -1246.6469      1286.4302    
      2640   312.86779     -275.0889      -543.80683      1285.9756    
      2650   310.93593     -275.06035      494.51873      1285.4681    
      2660   333.25415     -275.23219      988.53517      1285.0812    
      2670   398.65144     -275.76291      732.22708      1284.8901    
      2680   331.76307     -275.23152      818.11347      1284.8555    
      2690   238.80938     -274.48801      1082.8266      1284.9778    
      2700   293.87786     -274.9442       778.50482      1285.2798    
      2710   354.06711     -275.44253      83.769464      1285.6987    
      2720   315.45949     -275.14343     -545.79878      1286.1114    
      2730   258.22462     -274.69225     -995.45213      1286.4073    
      2740   256.07883     -274.68391     -1236.7066      1286.5136    
      2750   271.32354     -274.81153     -1256.9432      1286.4002    
      2760   278.74315     -274.87134     -934.26323      1286.0801    
      2770   279.98586     -274.87663     -11.960055      1285.6303    
      2780   347.64296     -275.41998      903.96762      1285.2141    
      2790   414.15552     -275.9621       1264.8227      1284.9844    
      2800   343.82714     -275.41075      1220.6664      1284.9969    
      2810   275.42838     -274.88362      626.06571      1285.2233    
      2820   298.06059     -275.10306     -316.39577      1285.545     
      2830   277.04438     -274.97832     -735.77431      1285.8024    
      2840   213.3555      -274.50459     -586.18233      1285.9266    
      2850   246.92829     -274.82456     -807.69837      1285.935     
      2860   259.94225     -274.98736     -903.73595      1285.8051    
      2870   258.96923     -275.03884     -314.03359      1285.5385    
      2880   331.5218      -275.70224      369.87819      1285.2402    
      2890   355.53468     -275.99714      545.19836      1285.025     
      2900   272.83587     -275.4205       404.68537      1284.9223    
      2910   244.88726     -275.26431      211.29278      1284.9025    
      2920   279.62133     -275.61115      160.2671       1284.928     
      2930   253.85563     -275.45642      227.65284      1284.9881    
      2940   231.02524     -275.30857     -177.11545      1285.0815    
      2950   247.12714     -275.46685     -763.55454      1285.1378    
      2960   227.56187     -275.32527     -635.79186      1285.0703    
      2970   193.73554     -275.05541     -40.151674      1284.9059    
      2980   236.59007     -275.39963      120.88343      1284.7408    
      2990   272.97182     -275.68103      197.03905      1284.6107    
      3000   254.62019     -275.51142      595.09032      1284.5346    
      3010   280.83467     -275.7003       769.22001      1284.5705    
      3020   321.61661     -276.0018       571.15436      1284.7403    
      3030   281.31472     -275.6441       277.52959      1285.0062    
      3040   242.03633     -275.29741     -270.02207      1285.3059    
      3050   267.36436     -275.47106     -942.96541      1285.5406    
      3060   241.2002      -275.21842     -1116.9692      1285.605     
      3070   168.13957     -274.58575     -806.80696      1285.478     
      3080   188.12858     -274.70779     -422.27632      1285.2187    
      3090   287.14521     -275.44705      110.28657      1284.9062    
      3100   340.76019     -275.79859      761.79773      1284.64      
      3110   337.83171     -275.7014       1306.7418      1284.5312    
      3120   321.86206     -275.51755      1359.1321      1284.6611    
      3130   298.63114     -275.28856      697.61636      1285.0201    
      3140   268.92578     -275.01503     -244.44126      1285.4822    
      3150   274.02429     -275.02695     -779.27757      1285.8842    
      3160   284.31083     -275.07989     -832.52743      1286.1352    
      3170   275.30942     -274.97646     -813.93055      1286.2282    
      3180   277.88973     -274.96785     -822.54669      1286.1744    
      3190   293.71991     -275.06587     -668.12014      1285.9846    
      3200   296.66286     -275.05915     -350.04482      1285.6944    
      3210   270.87333     -274.82033      232.81687      1285.3689    
      3220   280.42966     -274.86913      783.79788      1285.1093    
      3230   336.45917     -275.29246      982.58836      1285.0048    
      3240   358.32686     -275.44061      1005.2885      1285.0854    
      3250   340.6167      -275.27765      947.1104       1285.3469    
      3260   355.51372     -275.39025      392.64015      1285.7608    
      3270   337.18761     -275.24197     -573.01749      1286.2202    
      3280   241.77127     -274.46908     -1522.9445      1286.5569    
      3290   204.05695     -274.15959     -2037.4032      1286.611     
      3300   250.80251     -274.52779     -1277.0605      1286.3209    
      3310   294.06728     -274.8559       170.09213      1285.8352    
      3320   373.19646     -275.47081      894.73382      1285.4025    
      3330   417.84377     -275.81336      887.46918      1285.1499    
      3340   322.83333     -275.03896      1092.8434      1285.0825    
      3350   272.24046     -274.63156      1056.5295      1285.2171    
      3360   344.94641     -275.22844      200.81985      1285.524     
      3370   309.8983      -274.95262     -534.13869      1285.8573    
      3380   233.35425     -274.33723     -682.92428      1286.0907    
      3390   313.49741     -274.99351     -475.28644      1286.1985    
      3400   373.84883     -275.49165     -212.23762      1286.2219    
      3410   312.55759     -275.01076     -350.10038      1286.2064    
      3420   261.84232     -274.61765     -747.47332      1286.13      
      3430   282.46646     -274.80349     -683.05976      1285.9362    
      3440   309.55381     -275.04398     -91.823835      1285.6447    
      3450   302.20428     -275.00883      507.97572      1285.3586    
      3460   300.91108     -275.02724      909.87184      1285.1827    
      3470   339.00347     -275.37557      888.92436      1285.1782    
      3480   366.23262     -275.65548      496.54073      1285.3336    
      3490   320.02752     -275.35637     -44.988179      1285.5732    
      3500   232.38948     -274.71218     -666.1963       1285.7961    
      3510   207.94504     -274.56449     -1174.5384      1285.8928    
      3520   242.38843     -274.8894      -1004.4771      1285.7885    
      3530   303.59359     -275.43531     -339.46819      1285.5219    
      3540   323.70179     -275.65454      389.7743       1285.2158    
      3550   284.22711     -275.38776      749.51961      1284.9968    
      3560   266.60576     -275.28993      534.95527      1284.9201    
      3570   297.75329     -275.58603      38.168005      1284.9435    
      3580   268.33665     -275.38727     -75.845372      1284.9837    
      3590   194.98719     -274.81466      179.32198      1285.0197    
      3600   256.29865     -275.32767     -8.7273989      1285.0815    
      3610   314.04778     -275.80897     -191.88844      1285.1431    
      3620   254.11633     -275.33005      75.253923      1285.1805    
      3630   244.40327     -275.25393      150.32972      1285.2312    
      3640   300.38001     -275.70703     -214.72946      1285.3028    
      3650   263.77407     -275.40276     -359.06466      1285.3416    
      3660   229.00162     -275.11006     -416.75679      1285.3198    
      3670   259.78553     -275.34326     -423.75599      1285.2291    
      3680   242.05809     -275.1723       42.020552      1285.0799    
      3690   247.84442     -275.18663      535.40156      1284.9516    
      3700   338.31742     -275.87614      389.22309      1284.9198    
      3710   315.44807     -275.63643      240.93586      1284.9657    
      3720   221.36073     -274.82846      310.71502      1285.062     
      3730   253.07168     -275.0433       196.6842       1285.2101    
      3740   315.38726     -275.48793     -14.030583      1285.3887    
      3750   283.31026     -275.16129     -173.31923      1285.5625    
      3760   262.39715     -274.93468     -382.75435      1285.6999    
      3770   303.93796     -275.21419     -253.16275      1285.7719    
      3780   333.65244     -275.39638      104.40869      1285.8048    
      3790   306.38222     -275.12649     -76.984839      1285.852     
      3800   270.35203     -274.79865     -587.44691      1285.8826    
      3810   276.22833     -274.81696     -558.33995      1285.8201    
      3820   297.60863     -274.96297     -49.419666      1285.6734    
      3830   306.22811     -275.00903      295.63681      1285.5278    
      3840   294.98634     -274.89864      459.42289      1285.4457    
      3850   323.61312     -275.11678      544.52133      1285.4545    
      3860   369.29072     -275.47933      646.25066      1285.5674    
      3870   376.67956     -275.54359      486.21641      1285.7936    
      3880   300.20332     -274.9351      -200.37861      1286.0941    
      3890   223.01358     -274.3158      -1075.3732      1286.3456    
      3900   238.65693     -274.44308     -1352.8238      1286.4046    
      3910   310.7173      -275.02218     -941.07457      1286.2326    
      3920   338.20417     -275.23795     -260.96993      1285.9096    
      3930   306.1103      -274.97361      427.51571      1285.5627    
      3940   320.39954     -275.08964      784.72442      1285.3106    
      3950   368.32734     -275.4849       702.71118      1285.2105    
      3960   325.39044     -275.15086      691.36211      1285.2495    
      3970   239.28319     -274.4639       718.28576      1285.4184    
      3980   303.03048     -274.9922       25.861723      1285.7001    
      3990   360.75937     -275.47468     -566.1836       1285.9796    
      4000   287.69718     -274.89802     -314.70428      1286.1647    
      4010   286.63328     -274.90607     -282.4338       1286.2858    
      4020   336.21273     -275.32945     -794.22043      1286.346     
      4030   270.03251     -274.81263     -1014.6261      1286.2717    
      4040   231.15576     -274.51115     -927.82013      1286.0275    
      4050   284.53473     -274.95554     -446.66517      1285.6382    
      4060   294.96717     -275.04738      620.74582      1285.2028    
      4070   318.22111     -275.24324      1407.2555      1284.9015    
      4080   417.99952     -276.07282      1281.967       1284.8582    
      4090   382.21559     -275.82522      972.62273      1285.0528    
      4100   240.2958      -274.7167       451.61353      1285.4171    
      4110   217.79904     -274.56618     -593.98355      1285.8402    
      4120   244.89772     -274.81445     -1285.2872      1286.1466    
      4130   235.45102     -274.75941     -1318.9993      1286.222     
      4140   277.23896     -275.11743     -1091.255       1286.0638    
      4150   325.72198     -275.53269     -406.89128      1285.7292    
      4160   304.5325      -275.38577      476.57542      1285.3472    
      4170   299.149       -275.37071      668.03221      1285.0633    
      4180   306.78042     -275.46707      346.7967       1284.9094    
      4190   264.55565     -275.15866      425.64033      1284.8376    
      4200   263.65982     -275.18355      667.12836      1284.8531    
      4210   296.67351     -275.48711      584.51905      1284.9877    
      4220   291.37453     -275.48328      103.61556      1285.2205    
      4230   261.39193     -275.2785      -498.74807      1285.4639    
      4240   240.3452      -275.1411      -689.60601      1285.6183    
      4250   241.70655     -275.18115     -702.02647      1285.6485    
      4260   233.85512     -275.14083     -818.58231      1285.5533    
      4270   209.65312     -274.95913     -704.66843      1285.3223    
      4280   235.48052     -275.17519      27.601088      1284.9892    
      4290   344.25704     -276.06165      816.75098      1284.6818    
      4300   371.06772     -276.28741      1133.4123      1284.5342    
      4310   283.12488     -275.58905      862.3051       1284.5947    
      4320   234.91445     -275.21128      199.75862      1284.8063    
      4330   235.03235     -275.22007     -323.68682      1285.0509    
      4340   213.54746     -275.04401     -435.30557      1285.2374    
      4350   212.93951     -275.02786     -503.72166      1285.3413    
      4360   249.77323     -275.30283     -573.89152      1285.3537    
      4370   273.91866     -275.4588      -350.78418      1285.2713    
      4380   267.19389     -275.35274      200.1074       1285.1403    
      4390   292.75139     -275.49977      476.22395      1285.0515    
      4400   306.50303     -275.53931      411.87415      1285.0523    
      4410   286.67982     -275.30551      272.33623      1285.132     
      4420   292.22364     -275.28036      145.88763      1285.2627    
      4430   320.81308     -275.44025      59.672891      1285.4199    
      4440   289.04643     -275.11415      28.16303       1285.5882    
      4450   252.72086     -274.76406     -262.78724      1285.7556    
      4460   303.70072     -275.12453     -814.39825      1285.8677    
      4470   292.26034     -274.97555     -657.87675      1285.8458    
      4480   237.60299     -274.48646     -76.36502       1285.7184    
      4490   269.42586     -274.70351      174.81298      1285.5812    
      4500   319.78084     -275.06468      376.83745      1285.4861    
      4510   348.79403     -275.25555      670.23797      1285.4708    
      4520   391.69202     -275.57121      719.82895      1285.5796    
      4530   377.14205     -275.438        475.20363      1285.8162    
      4540   292.29198     -274.74652      58.86876       1286.1334    
      4550   288.32909     -274.71482     -643.43456      1286.4485    
      4560   334.22288     -275.08878     -1272.4876      1286.6403    
      4570   285.88822     -274.69809     -1306.4915      1286.6096    
      4580   232.72749     -274.26559     -907.35724      1286.356     
      4590   279.53658     -274.64023     -309.65328      1285.9569    
      4600   350.86836     -275.20988      315.14886      1285.5242    
      4610   341.5723      -275.12857      897.49953      1285.1724    
      4620   324.25522     -274.98976      1346.7146      1285.0016    
      4630   361.20043     -275.29968      1384.272       1285.0807    
      4640   368.93297     -275.38448      726.56373      1285.4017    
      4650   298.31653     -274.84034     -301.93625      1285.8417    
      4660   245.26771     -274.433       -875.16604      1286.2218    
      4670   303.58791     -274.9289      -907.00518      1286.4417    
      4680   347.73383     -275.31552     -797.47687      1286.4974    
      4690   308.67498     -275.03245     -808.26617      1286.4108    
      4700   263.19526     -274.69527     -836.03598      1286.1866    
      4710   259.41578     -274.69239     -420.6486       1285.832     
      4720   283.26322     -274.91116      340.0379       1285.427     
      4730   334.3793      -275.35619      605.56997      1285.0962    
      4740   327.41594     -275.3382       669.07251      1284.8908    
      4750   288.52227     -275.06329      998.02027      1284.8253    
      4760   322.61053     -275.38672      1068.0259      1284.9437    
      4770   351.98513     -275.68807      509.6131       1285.2461    
      4780   275.51576     -275.13411     -327.58186      1285.6306    
      4790   211.64108     -274.66512     -1068.3205      1285.9472    
      4800   242.65669     -274.95986     -1329.1955      1286.0699    
      4810   266.94006     -275.19966     -958.50526      1285.9617    
      4820   259.13238     -275.17466     -319.27426      1285.6938    
      4830   275.49913     -275.34237      103.28612      1285.38      
      4840   314.82051     -275.69931      337.16058      1285.0991    
      4850   305.9679      -275.66904      588.94495      1284.8965    
      4860   259.63294     -275.33064      611.37146      1284.81      
      4870   236.16567     -275.17019      243.51331      1284.8354    
      4880   229.66799     -275.1391      -64.751414      1284.9092    
      4890   258.86058     -275.39193     -63.465627      1284.9776    
      4900   306.78341     -275.79552      96.669877      1285.0394    
      4910   294.25818     -275.70926      128.38859      1285.1199    
      4920   217.88492     -275.09953     -93.021649      1285.2222    
      4930   216.03402     -275.08782     -496.65514      1285.3041    
      4940   267.58661     -275.50114     -520.38432      1285.3035    
      4950   255.41877     -275.38548     -172.26302      1285.2201    
      4960   239.95937     -275.23363      105.40503      1285.1117    
      4970   275.07671     -275.47613      317.42103      1285.0301    
      4980   320.60522     -275.77696      477.7462       1285.0133    
      4990   307.4012      -275.58142      482.46965      1285.0872    
      5000   259.67285     -275.10408      235.75767      1285.2469    
      5010   240.12865     -274.85818     -109.37929      1285.4468    
      5020   284.55796     -275.12311     -377.33124      1285.625     
      5030   298.37999     -275.13138     -329.70153      1285.7389    
      5040   278.50795     -274.88288     -125.51062      1285.7968    
      5050   313.06101     -275.09037     -12.304988      1285.8338    
      5060   349.56776     -275.32054      43.734974      1285.872     
      5070   324.91145     -275.06954     -5.9149494      1285.922     
      5080   292.95015     -274.77479     -327.28005      1285.97      
      5090   256.50547     -274.44927     -225.5262       1285.9695    
      5100   277.51114     -274.5908       226.07648      1285.9392    
      5110   389.93104     -275.47052      220.6824       1285.9484    
      5120   396.31767     -275.49705     -11.405799      1286.0005    
      5130   285.04113     -274.58409      91.15243       1286.0621    
      5140   292.08494     -274.63723      121.0254       1286.1421    
      5150   371.51396     -275.28018     -211.84521      1286.2404    
      5160   302.51157     -274.72176     -376.14708      1286.307     
      5170   258.56203     -274.36795     -553.43078      1286.3081    
      5180   338.85875     -275.02356     -591.85127      1286.2159    
      5190   350.10234     -275.12189     -154.1552       1286.0338    
      5200   293.9383      -274.67722      200.93216      1285.8356    
      5210   323.02816     -274.92898      38.60587       1285.6769    
      5220   334.44537     -275.04217      220.78104      1285.5427    
      5230   301.94612     -274.80169      747.2817       1285.4654    
      5240   325.29359     -275.0191       754.3767       1285.5231    
      5250   335.52073     -275.13741      329.77327      1285.7146    
      5260   299.18557     -274.88035     -70.345181      1285.9662    
      5270   310.40934     -275.01103     -441.40901      1286.2024    
      5280   345.33003     -275.3432      -686.09673      1286.3581    
      5290   301.41656     -275.04        -656.65807      1286.3952    
      5300   243.25745     -274.61112     -732.09546      1286.3155    
      5310   255.45478     -274.74546     -752.94932      1286.1108    
      5320   295.65681     -275.10589     -278.6276       1285.7897    
      5330   318.21602     -275.32531      273.81682      1285.4356    
      5340   310.72016     -275.30323      492.57894      1285.1432    
      5350   293.69359     -275.20311      562.40919      1284.953     
      5360   295.47094     -275.25433      749.41974      1284.8787    
      5370   312.89059     -275.43402      842.94179      1284.9465    
      5380   302.05108     -275.38589      619.11609      1285.1655    
      5390   263.87738     -275.11051      5.4663529      1285.4891    
      5400   253.42082     -275.05309     -772.51725      1285.8048    
      5410   255.50165     -275.09073     -1039.0337      1285.9835    
      5420   261.40791     -275.15402     -905.26591      1285.9788    
      5430   251.70315     -275.084       -638.19132      1285.8169    
      5440   272.17375     -275.25388     -210.61721      1285.5513    
      5450   310.83524     -275.5682       411.53813      1285.2651    
      5460   316.73961     -275.61697      727.0612       1285.0633    
      5470   269.14967     -275.23146      718.65099      1285.0004    
      5480   248.56933     -275.06183      590.20958      1285.0733    
      5490   312.85686     -275.57721      151.3094       1285.2502    
      5500   328.46228     -275.69429     -280.74855      1285.4544    
      5510   239.50911     -274.96167     -331.19776      1285.6141    
      5520   217.1306      -274.76626     -421.27426      1285.7121    
      5530   280.49091     -275.25366     -608.56909      1285.733     
      5540   276.13204     -275.17215     -516.94162      1285.6526    
      5550   239.81245     -274.8227      -298.11436      1285.4881    
      5560   304.23335     -275.27361     -55.428564      1285.2789    
      5570   335.93847     -275.4268       666.20753      1285.0798    
      5580   315.00829     -275.15122      1306.0655      1285.0135    
      5590   369.99701     -275.49443      960.78959      1285.1748    
      5600   362.20337     -275.33217      577.14737      1285.5125    
      5610   271.56207     -274.52622      360.55897      1285.955     
      5620   292.3118      -274.64278     -476.89145      1286.4442    
      5630   316.05055     -274.78164     -1366.0346      1286.836     
      5640   252.26046     -274.21859     -1355.6115      1286.989     
      5650   300.1506      -274.57077     -1041.7544      1286.8994    
      5660   389.54456     -275.25715     -560.09559      1286.6313    
      5670   347.25641     -274.88621      120.17307      1286.2807    
      5680   324.5521      -274.69001      326.70103      1285.9603    
      5690   353.5213      -274.92165      501.70816      1285.7145    
      5700   336.01142     -274.78208      1013.6919      1285.5803    
      5710   375.30276     -275.11407      938.74159      1285.6302    
      5720   400.43463     -275.34721      400.54062      1285.8488    
      5730   314.90883     -274.69068     -59.342698      1286.143     
      5740   262.00397     -274.29191     -619.35937      1286.4216    
      5750   296.58328     -274.60059     -968.96872      1286.5875    
      5760   291.67155     -274.58597     -785.37873      1286.587     
      5770   287.39313     -274.57331     -636.4527       1286.4479    
      5780   318.99451     -274.85253     -429.60304      1286.2029    
      5790   342.08418     -275.06618      272.59076      1285.9016    
      5800   388.10814     -275.47788      787.5925       1285.662     
      5810   390.25074     -275.55322      632.55837      1285.5682    
      5820   298.02323     -274.8642       302.02546      1285.597     
      5830   283.67802     -274.79779     -43.768464      1285.6848    
      5840   322.40801     -275.16453     -207.21787      1285.7703    
      5850   260.94742     -274.71122     -92.479831      1285.8265    
      5860   228.90161     -274.47943     -159.96887      1285.8663    
      5870   325.51649     -275.29181     -497.15067      1285.875     
      5880   329.35362     -275.35324     -284.83277      1285.8088    
      5890   267.80221     -274.87901      60.570677      1285.7007    
      5900   276.02424     -274.966        47.421413      1285.6052    
      5910   295.71963     -275.14215      199.59506      1285.5292    
      5920   319.29609     -275.3488       485.08309      1285.4996    
      5930   356.90189     -275.6747       374.56989      1285.5581    
      5940   325.72797     -275.44781      30.200208      1285.6861    
      5950   262.08475     -274.95329     -287.7644       1285.8228    
      5960   263.77739     -274.98309     -654.97277      1285.9076    
      5970   267.80841     -275.02627     -840.58965      1285.8781    
      5980   235.77654     -274.76871     -520.03815      1285.7099    
      5990   257.13118     -274.93884      72.935127      1285.4601    
      6000   302.16196     -275.29544      609.34514      1285.2344    
      6010   317.57359     -275.41         763.45002      1285.1249    
      6020   314.64353     -275.3786       580.35606      1285.1573    
      6030   305.18682     -275.29693      395.16482      1285.3006    
      6040   306.92973     -275.30794      208.35742      1285.518     
      6050   308.46053     -275.31895     -216.6493       1285.769     
      6060   262.30116     -274.94114     -535.46301      1285.9818    
      6070   264.68397     -274.95525     -669.1299       1286.0994    
      6080   294.58619     -275.18863     -611.92148      1286.1004    
      6090   283.88476     -275.08943     -485.65766      1285.9964    
      6100   280.84159     -275.05171     -469.39335      1285.8098    
      6110   291.69265     -275.12535     -224.60425      1285.5512    
      6120   258.68929     -274.84016      467.66536      1285.2714    
      6130   278.28191     -274.9806       992.05491      1285.086     
      6140   362.80658     -275.64563      969.8307       1285.0817    
      6150   344.74529     -275.4824       756.26784      1285.2582    
      6160   288.039       -275.01434      246.49597      1285.5694    
      6170   289.5646      -275.0214      -420.00259      1285.9205    
      6180   293.62025     -275.04736     -752.50875      1286.1979    
      6190   283.85615     -274.96018     -881.88609      1286.3398    
      6200   280.68591     -274.92581     -867.92379      1286.3247    
      6210   273.2151      -274.85441     -547.1482       1286.1624    
      6220   298.28752     -275.04629     -146.81321      1285.9104    
      6230   321.39655     -275.22281      238.91628      1285.643     
      6240   293.93004     -274.99091      506.32541      1285.4301    
      6250   307.49931     -275.09537      454.83437      1285.3142    
      6260   340.98469     -275.36476      560.39481      1285.2925    
      6270   315.37084     -275.15818      789.40767      1285.3824    
      6280   292.09072     -274.97292      403.88533      1285.6091    
      6290   275.84254     -274.8426      -195.91527      1285.9062    
      6300   281.45864     -274.88663     -491.30074      1286.1714    
      6310   334.25935     -275.31374     -704.81039      1286.3472    
      6320   335.26474     -275.32432     -834.29588      1286.3975    
      6330   245.29936     -274.5956      -634.61013      1286.3067    
      6340   271.43662     -274.80724     -465.42414      1286.1058    
      6350   355.76138     -275.48995     -171.29104      1285.8313    
      6360   291.42415     -274.9663       455.94345      1285.5449    
      6370   265.83614     -274.75818      525.46637      1285.3437    
      6380   336.12041     -275.32865      303.55185      1285.2427    
      6390   312.99541     -275.1408       589.81425      1285.215     
      6400   291.61017     -274.96952      602.7442       1285.2961    
      6410   335.89861     -275.33439      173.22592      1285.4831    
      6420   307.56192     -275.11171      68.118819      1285.7098    
      6430   262.22461     -274.74999     -80.127469      1285.9493    
      6440   294.59787     -275.01823     -605.20489      1286.1667    
      6450   282.65511     -274.92289     -677.47877      1286.2826    
      6460   284.42139     -274.93677     -488.30226      1286.2822    
      6470   346.73953     -275.44357     -451.01738      1286.1947    
      6480   323.65544     -275.26035     -200.52692      1286.0374    
      6490   280.46027     -274.91662     -51.145507      1285.8512    
      6500   293.85364     -275.03339     -68.942955      1285.6613    
      6510   259.39379     -274.75755      362.81161      1285.4767    
      6520   275.45078     -274.88829      569.051        1285.3633    
      6530   369.04511     -275.64924      290.61915      1285.3525    
      6540   335.36143     -275.38254      426.38657      1285.4092    
      6550   268.98933     -274.8546       494.82865      1285.5481    
      6560   309.44236     -275.19696     -180.72496      1285.7663    
      6570   300.04061     -275.13623     -621.48356      1285.9571    
      6580   239.73395     -274.6593      -522.69722      1286.0454    
      6590   270.58002     -274.92027     -523.75316      1286.0385    
      6600   293.3279      -275.11303     -291.75318      1285.9449    
      6610   282.67674     -275.03177      196.16749      1285.8106    
      6620   357.5218      -275.64968      130.0498       1285.71      
      6630   335.57127     -275.48987      90.869228      1285.6426    
      6640   243.00013     -274.75682      226.58412      1285.6029    
      6650   285.45883     -275.11974     -19.417718      1285.6028    
      6660   317.91159     -275.40457     -102.76503      1285.6073    
      6670   233.30903     -274.73436      224.33264      1285.6062    
      6680   275.11183     -275.08728      64.153265      1285.6418    
      6690   371.23015     -275.8866      -256.76911      1285.6909    
      6700   296.3698      -275.30317     -189.88376      1285.7063    
      6710   214.27357     -274.65518     -425.96366      1285.6866    
      6720   237.593       -274.85668     -698.37501      1285.5923    
      6730   267.31248     -275.10333     -123.82195      1285.3911    
      6740   294.15738     -275.322        686.79155      1285.1801    
      6750   329.68912     -275.61123      884.70587      1285.0933    
      6760   320.85761     -275.54309      716.53067      1285.1704    
      6770   305.80645     -275.42849      389.3696       1285.3803    
      6780   291.741       -275.32331     -105.77259      1285.6606    
      6790   258.8001      -275.06254     -700.44472      1285.9202    
      6800   230.70278     -274.83523     -1080.7438      1286.055     
      6810   238.27677     -274.89012     -901.38053      1286.0032    
      6820   270.76912     -275.13808     -277.80519      1285.7996    
      6830   302.69165     -275.37264      187.41377      1285.5512    
      6840   301.41763     -275.33263      346.34142      1285.3422    
      6850   307.59235     -275.35187      356.27534      1285.2033    
      6860   307.01038     -275.31416      451.7108       1285.1396    
      6870   289.90701     -275.14152      497.03167      1285.1644    
      6880   283.69216     -275.05562      429.31996      1285.2825    
      6890   293.94394     -275.09895      431.43629      1285.484     
      6900   322.55054     -275.2861       215.08454      1285.7631    
      6910   330.38728     -275.30209     -367.51213      1286.0768    
      6920   295.9899      -274.97874     -911.86341      1286.3246    
      6930   242.07826     -274.50074     -1107.3308      1286.4129    
      6940   246.60454     -274.49586     -1099.5829      1286.3044    
      6950   294.22025     -274.82828     -624.6212       1286.0085    
      6960   342.58256     -275.15608      357.94108      1285.6176    
      6970   369.28884     -275.30855      1197.5461      1285.3025    
      6980   351.61605     -275.11375      1517.2648      1285.2102    
      6990   344.66685     -275.02072      1223.3627      1285.3937    
      7000   376.75165     -275.25611      437.76672      1285.7961    
      7010   342.09418     -274.96103     -264.79167      1286.2809    
      7020   259.07187     -274.27988     -744.97393      1286.72      
      7030   274.8398      -274.40076     -1319.6964      1287.0182    
      7040   325.04873     -274.79776     -1475.5367      1287.082     
      7050   294.10961     -274.5351      -897.08494      1286.8925    
      7060   297.4988      -274.5529      -323.66788      1286.547     
      7070   380.37042     -275.21856     -76.530118      1286.1473    
      7080   386.28715     -275.26975      483.34221      1285.753     
      7090   333.82937     -274.86103      973.52073      1285.4593    
      7100   326.09164     -274.82321      923.3207       1285.3453    
      7110   343.09103     -274.99547      761.92451      1285.4063    
      7120   329.58812     -274.92814      695.8239       1285.6146    
      7130   340.65457     -275.07183      100.58712      1285.9439    
      7140   301.78372     -274.81787     -588.99176      1286.2919    
      7150   246.81368     -274.42572     -943.88333      1286.538     
      7160   276.77826     -274.72075     -1067.17        1286.616     
      7170   323.07434     -275.15957     -1004.0582      1286.5052    
      7180   284.24464     -274.9103      -664.54205      1286.2227    
      7190   275.11061     -274.89568     -234.0674       1285.829     
      7200   330.24662     -275.41041      430.99904      1285.4074    
      7210   338.40478     -275.55372      1133.3704      1285.0781    
      7220   326.26444     -275.53394      1065.2963      1284.9542    
      7230   317.67777     -275.54098      455.97314      1285.024     
      7240   274.10214     -275.25063      57.558374      1285.1862    
      7250   225.40495     -274.89573     -271.40577      1285.3627    
      7260   212.47619     -274.81213     -654.43649      1285.4901    
      7270   223.90876     -274.91317     -713.8377       1285.5051    
      7280   257.76618     -275.1871      -305.04164      1285.4013    
      7290   311.53814     -275.61851      240.94678      1285.25      
      7300   323.47849     -275.71088      585.93841      1285.1475    
      7310   299.2468      -275.5127       472.01444      1285.1522    
      7320   276.00183     -275.32282      62.017838      1285.2438    
      7330   260.08895     -275.18941     -105.75384      1285.3552    
      7340   272.58215     -275.28286     -164.15331      1285.4523    
      7350   294.67152     -275.45101     -272.24499      1285.522     
      7360   263.82425     -275.18668     -166.5443       1285.5503    
      7370   242.40877     -274.99664     -107.8172       1285.5521    
      7380   291.29387     -275.37274     -339.33122      1285.5334    
      7390   286.4451      -275.30614     -336.79511      1285.4623    
      7400   220.17903     -274.74064     -71.828965      1285.3404    
      7410   242.47978     -274.89213     -10.012169      1285.2067    
      7420   300.80818     -275.32283      307.33154      1285.0818    
      7430   336.08021     -275.5587       892.01623      1285.0251    
      7440   363.45705     -275.73436      1003.9594      1285.131     
      7450   350.06963     -275.58942      479.90388      1285.4158    
      7460   282.1066      -275.01204     -293.98517      1285.7885    
      7470   259.96868     -274.81107     -1065.846       1286.1077    
      7480   229.17786     -274.53528     -1245.9182      1286.2424    
      7490   213.96784     -274.38146     -857.23559      1286.1599    
      7500   293.45617     -274.98562     -296.20274      1285.928     
      7510   389.11027     -275.70482      320.06737      1285.6505    
      7520   350.29546     -275.33883      957.19555      1285.4431    
      7530   300.78388     -274.9042       886.88978      1285.4081    
      7540   311.01375     -274.96047      393.58249      1285.5349    
      7550   313.75984     -274.95693      72.935489      1285.7414    
      7560   312.6797      -274.92511     -132.299        1285.9672    
      7570   322.0456      -274.98121     -392.92067      1286.1704    
      7580   314.92801     -274.90606     -342.71534      1286.3111    
      7590   334.31055     -275.05049     -256.38398      1286.3942    
      7600   340.87628     -275.09587     -514.25611      1286.4297    
      7610   288.52489     -274.66717     -753.98595      1286.3771    
      7620   263.71344     -274.4623      -635.09434      1286.1976    
      7630   286.06588     -274.63688     -27.673477      1285.9161    
      7640   306.62227     -274.79264      803.48544      1285.642     
      7650   353.02159     -275.15875      998.2301       1285.513     
      7660   409.77105     -275.61897      670.14827      1285.566     
      7670   353.57197     -275.17879      668.8087       1285.7558    
      7680   309.7255      -274.84945      251.99246      1286.0663    
      7690   313.53394     -274.9153      -851.33547      1286.4141    
      7700   251.65917     -274.44794     -1400.7824      1286.6175    
      7710   233.80275     -274.33201     -1046.1326      1286.5815    
      7720   332.5347      -275.17124     -568.64504      1286.3593    
      7730   364.83041     -275.4929      -132.99713      1286.0403    
      7740   296.52398     -275.00979      257.37593      1285.7062    
      7750   287.40147     -275.01142      361.65494      1285.4229    
      7760   296.63576     -275.17191      466.12328      1285.2141    
      7770   286.67695     -275.17888      595.2927       1285.0988    
      7780   293.65192     -275.32272      447.88803      1285.0941    
      7790   270.40332     -275.21344      279.42168      1285.1769    
      7800   248.70919     -275.09725      184.40999      1285.3168    
      7810   298.72737     -275.5562      -105.77746      1285.4906    
      7820   311.46467     -275.71097     -352.13246      1285.6501    
      7830   243.64683     -275.19761     -457.37278      1285.7519    
      7840   224.69894     -275.06485     -692.04337      1285.7712    
      7850   267.22568     -275.42369     -798.06114      1285.6691    
      7860   255.29013     -275.33229     -276.73314      1285.4371    
      7870   234.39565     -275.16096      288.62359      1285.1614    
      7880   274.20762     -275.47695      357.17269      1284.9367    
      7890   309.81135     -275.75386      380.05366      1284.7837    
      7900   289.66665     -275.57761      610.61624      1284.7111    
      7910   245.50891     -275.20606      645.54299      1284.7531    
      7920   233.28553     -275.09014      346.43478      1284.9124    
      7930   274.75358     -275.40321     -56.430286      1285.1366    
      7940   286.30444     -275.46547     -190.12369      1285.3588    
      7950   259.11704     -275.2118      -154.69103      1285.5526    
      7960   260.84293     -275.19167     -233.79253      1285.7196    
      7970   283.04421     -275.3322      -370.01279      1285.8466    
      7980   293.46341     -275.37295     -411.94153      1285.9118    
      7990   297.65005     -275.36321     -441.57246      1285.9065    
      8000   266.40389     -275.06767     -436.26594      1285.8263    
      8010   241.96445     -274.8304      -271.77077      1285.6737    
      8020   272.5675      -275.03708      160.67042      1285.4814    
      8030   310.66888     -275.29798      549.29033      1285.3242    
      8040   333.12424     -275.4332       645.48708      1285.2695    
      8050   339.10061     -275.44295      653.06727      1285.3388    
      8060   310.55515     -275.18262      572.57977      1285.5333    
      8070   283.87546     -274.94478     -76.997134      1285.8282    
      8080   268.54257     -274.80068     -907.14527      1286.1092    
      8090   242.22115     -274.5656      -960.65132      1286.2401    
      8100   276.82764     -274.82275     -451.30706      1286.2073    
      8110   357.70051     -275.45155     -95.887643      1286.0937    
      8120   334.15304     -275.23703      142.57356      1285.9682    
      8130   291.5603      -274.87749      188.58969      1285.8728    
      8140   327.0587      -275.15654      130.52525      1285.8161    
      8150   316.87314     -275.06646      289.83271      1285.7942    
      8160   293.65344     -274.87353      129.17976      1285.8261    
      8170   320.17484     -275.08708     -241.43466      1285.8828    
      8180   286.7159      -274.81312      117.83609      1285.9139    
      8190   291.43185     -274.84871      462.40412      1285.972     
      8200   394.96502     -275.69186     -102.27862      1286.1043    
      8210   324.38901     -275.12938     -532.28902      1286.2279    
      8220   200.94217     -274.13383     -717.41668      1286.2632    
      8230   265.4022      -274.65978     -919.72384      1286.1689    
      8240   317.85115     -275.08141     -327.7611       1285.924     
      8250   283.02042     -274.79176      693.63911      1285.6332    
      8260   363.00666     -275.4386       970.06436      1285.4633    
      8270   415.51345     -275.87335      905.44063      1285.4742    
      8280   331.27834     -275.21275      792.18856      1285.6595    
      8290   290.40368     -274.90824      39.939655      1285.9854    
      8300   263.36548     -274.71347     -888.96953      1286.3197    
      8310   212.58536     -274.31508     -1208.0652      1286.5054    
      8320   285.06959     -274.91328     -1248.2101      1286.4749    
      8330   349.27364     -275.44497     -642.08314      1286.2305    
      8340   278.23138     -274.87905      367.27579      1285.8827    
      8350   300.67654     -275.07412      478.52656      1285.5931    
      8360   353.55077     -275.52291      266.18326      1285.3928    
      8370   286.99741     -275.00651      651.57884      1285.2597    
      8380   285.43159     -275.02104      695.25846      1285.2458    
      8390   315.25396     -275.29986      357.83376      1285.3586    
      8400   272.29527     -274.9925       320.1333       1285.5491    
      8410   312.20753     -275.36881      10.390424      1285.7981    
      8420   336.52812     -275.64436     -480.71224      1286.0516    
      8430   246.95418     -274.9994      -795.54547      1286.2257    
      8440   211.92061     -274.78114     -1164.9153      1286.256     
      8450   238.78554     -275.0643      -1219.5253      1286.0803    
      8460   222.17372     -274.98637     -580.73377      1285.6965    
      8470   267.47964     -275.40409      109.18472      1285.211     
      8480   336.20028     -276.02134      694.57321      1284.7493    
      8490   297.55214     -275.76622      1349.5299      1284.4246    
      8500   277.78087     -275.65503      1238.0034      1284.3412    
      8510   282.22659     -275.73608      504.97393      1284.4801    
      8520   208.69347     -275.1691       194.88629      1284.7249    
      8530   192.34024     -275.04988     -12.640341      1285.0111    
      8540   264.57768     -275.6433      -624.56407      1285.2909    
      8550   243.01161     -275.46529     -951.37972      1285.4654    
      8560   202.39174     -275.12591     -733.6238       1285.478     
      8570   242.36787     -275.43368     -272.7949       1285.363     
      8580   282.77886     -275.73317      119.17312      1285.2014    
      8590   283.56811     -275.7055       218.29332      1285.0621    
      8600   267.91232     -275.54369      250.18576      1284.9671    
      8610   236.96877     -275.25671      543.95038      1284.9282    
      8620   272.88738     -275.50954      565.37337      1284.9891    
      8630   310.31055     -275.76522      184.01001      1285.1527    
      8640   269.90457     -275.39024     -193.52237      1285.3562    
      8650   234.06582     -275.05903     -375.37016      1285.5326    
      8660   247.30208     -275.12541     -452.64562      1285.6457    
      8670   248.70821     -275.09057     -428.95196      1285.6817    
      8680   234.43306     -274.92891     -336.51078      1285.6446    
      8690   264.30941     -275.12557     -261.12723      1285.5491    
      8700   305.00153     -275.40671      34.078047      1285.4142    
      8710   341.31017     -275.65667      480.07304      1285.2937    
      8720   339.3861      -275.60742      738.31817      1285.2647    
      8730   274.87577     -275.06119      627.09435      1285.3726    
      8740   285.73862     -275.13277      66.426051      1285.5939    
      8750   323.5162      -275.42253     -361.19599      1285.8355    
      8760   264.11336     -274.92417     -430.12229      1286.0232    
      8770   218.38682     -274.53759     -684.04725      1286.1333    
      8780   259.17365     -274.84865     -916.30809      1286.1215    
      8790   291.22309     -275.07967     -489.89216      1285.9566    
      8800   326.53245     -275.33531      238.53964      1285.7113    
      8810   348.48209     -275.48544      604.54304      1285.5096    
      8820   301.59886     -275.08375      562.8708       1285.419     
      8830   280.18177     -274.89379      325.21723      1285.4348    
      8840   318.75069     -275.19071      134.77434      1285.5166    
      8850   320.25717     -275.18637      91.251013      1285.6322    
      8860   306.66784     -275.0631      -51.451194      1285.769     
      8870   312.38205     -275.09907     -201.33676      1285.9024    
      8880   301.79591     -275.00366     -244.66192      1286.007     
      8890   287.13225     -274.87565     -395.338        1286.0704    
      8900   270.51037     -274.73017     -467.27528      1286.0673    
      8910   242.94127     -274.49089     -188.27429      1285.9893    
      8920   310.04817     -275.01525     -6.3053636      1285.8789    
      8930   381.18934     -275.56628      134.22522      1285.7718    
      8940   323.84861     -275.08031      630.68613      1285.7029    
      8950   317.33217     -275.01617      780.82106      1285.7504    
      8960   374.65229     -275.4754       340.99207      1285.9387    
      8970   337.37554     -275.17465     -329.74488      1286.1946    
      8980   269.69635     -274.63229     -1027.0786      1286.3958    
      8990   242.0415      -274.41224     -1076.6302      1286.4237    
      9000   248.72698     -274.46393     -432.58209      1286.2691    
      9010   336.36284     -275.16748     -51.822098      1286.0336    
      9020   389.69425     -275.59365      94.993594      1285.7898    
      9030   297.06447     -274.8431       586.12873      1285.5765    
      9040   279.21962     -274.70395      741.08413      1285.4703    
      9050   341.77306     -275.22051      446.72591      1285.4983    
      9060   306.52565     -274.94636      270.99234      1285.6178    
      9070   276.63904     -274.71748      89.600846      1285.7934    
      9080   348.41763     -275.32021     -140.35295      1285.9905    
      9090   360.62888     -275.4521      -106.02896      1286.1743    
      9100   304.75968     -275.04062     -294.4647       1286.3425    
      9110   278.09306     -274.86939     -893.9126       1286.4554    
      9120   235.05943     -274.55879     -1037.5077      1286.4172    
      9130   268.53604     -274.86548     -793.8874       1286.1973    
      9140   327.34642     -275.38566     -327.86122      1285.8377    
      9150   279.06406     -275.03741      463.76879      1285.4278    
      9160   269.28142     -274.99551      824.50671      1285.0994    
      9170   349.70274     -275.6947       700.93698      1284.9183    
      9180   328.98158     -275.58315      809.94768      1284.8769    
      9190   260.89718     -275.08007      673.65436      1284.9873    
      9200   265.68023     -275.16256     -102.70714      1285.2158    
      9210   241.73564     -275.00351     -431.70412      1285.4402    
      9220   248.38406     -275.08352     -316.84232      1285.598     
      9230   314.01188     -275.64277     -329.48185      1285.7002    
      9240   291.75887     -275.48847     -327.23446      1285.7484    
      9250   236.61038     -275.05954     -326.55439      1285.7422    
      9260   272.71482     -275.36747     -488.27924      1285.6767    
      9270   269.33701     -275.35        -246.37447      1285.5326    
      9280   224.46504     -274.98784      228.73933      1285.3514    
      9290   279.55191     -275.43254      212.18102      1285.2065    
      9300   320.73492     -275.75855      207.67628      1285.1057    
      9310   279.41314     -275.41326      450.70976      1285.0533    
      9320   272.04001     -275.34337      284.64524      1285.0818    
      9330   269.32207     -275.30616     -51.56529       1285.1654    
      9340   239.27424     -275.04063     -57.86614       1285.2513    
      9350   277.1905      -275.31991     -173.02141      1285.3293    
      9360   296.4044      -275.43382     -311.65861      1285.3805    
      9370   247.60725     -274.99052     -107.73829      1285.386     
      9380   252.04868     -274.97615      111.78289      1285.3765    
      9390   318.85221     -275.45007      83.258955      1285.388     
      9400   324.21814     -275.41048      152.65773      1285.4229    
      9410   284.59091     -275.01342      268.95598      1285.4932    
      9420   284.23487     -274.94195      277.51206      1285.617     
      9430   302.08341     -275.0178       297.75182      1285.7995    
      9440   324.25641     -275.13097      0.26921332     1286.0387    
      9450   324.62582     -275.07561     -478.42707      1286.2832    
      9460   312.99083     -274.93536     -652.83991      1286.4526    
      9470   314.40453     -274.91154     -553.36425      1286.5131    
      9480   316.30848     -274.89923     -554.5425       1286.4753    
      9490   296.21964     -274.71472     -515.90755      1286.341     
      9500   290.02923     -274.64722     -230.88807      1286.1201    
      9510   324.78843     -274.91448      21.91946       1285.8591    
      9520   348.96127     -275.1002       237.28947      1285.6054    
      9530   322.76373     -274.88409      497.99882      1285.4007    
      9540   305.22902     -274.74286      637.24385      1285.2901    
      9550   338.80862     -275.01999      745.99886      1285.3019    
      9560   368.0044      -275.26904      795.68614      1285.4569    
      9570   338.16243     -275.04703      595.53694      1285.7645    
      9580   312.58085     -274.86406     -200.29861      1286.1816    
      9590   277.01836     -274.59743     -1008.7128      1286.5718    
      9600   271.05899     -274.5658      -1364.3218      1286.7916    
      9610   317.88878     -274.96209     -1272.2654      1286.7725    
      9620   330.48783     -275.08307     -770.88858      1286.5301    
      9630   306.59489     -274.90986     -230.44032      1286.1491    
      9640   315.39451     -275.00415      163.46202      1285.7247    
      9650   318.08248     -275.05169      647.96947      1285.3342    
      9660   297.66519     -274.91134      981.97293      1285.0632    
      9670   337.7861      -275.2667       733.60278      1284.9671    
      9680   346.01081     -275.37201      417.65301      1285.0106    
      9690   285.66905     -274.92075      565.23035      1285.147     
      9700   291.15608     -275.00133      348.53147      1285.3883    
      9710   313.45246     -275.22131     -267.44557      1285.6957    
      9720   257.15597     -274.79818     -632.14234      1285.9678    
      9730   246.86472     -274.73961     -834.20368      1286.1331    
      9740   297.38693     -275.17343     -896.03986      1286.1521    
      9750   284.67118     -275.09154     -574.46184      1286.0172    
      9760   275.2572      -275.03304     -99.357727      1285.7819    
      9770   326.67371     -275.46984      338.98163      1285.53      
      9780   353.61951     -275.71493      671.67723      1285.3428    
      9790   323.76515     -275.50752      572.54157      1285.2773    
      9800   263.82654     -275.05519      146.51711      1285.3181    
      9810   231.0594      -274.81581     -178.12814      1285.3936    
      9820   246.34433     -274.9605      -367.7618       1285.4436    
      9830   290.94097     -275.34176     -520.84485      1285.431     
      9840   291.00654     -275.36242     -381.30956      1285.3318    
      9850   249.07631     -275.03953      48.83614       1285.1713    
      9860   259.28442     -275.13785      215.11396      1285.0177    
      9870   282.71125     -275.3426       288.2063       1284.9055    
      9880   277.30362     -275.31308      525.27951      1284.8536    
      9890   284.86153     -275.38993      675.18399      1284.9022    
      9900   319.07743     -275.68868      499.7519       1285.0763    
      9910   311.54269     -275.65671      173.3174       1285.3494    
      9920   267.62622     -275.33333     -306.65168      1285.6616    
      9930   238.95842     -275.13138     -854.89475      1285.9251    
      9940   224.44636     -275.03855     -1153.6312      1286.0423    
      9950   230.13013     -275.10332     -1183.7163      1285.9555    
      9960   245.4327      -275.24045     -907.29336      1285.6567    
      9970   243.76955     -275.2325      -182.76863      1285.1977    
      9980   266.86096     -275.4191       557.62741      1284.7033    
      9990   317.01901     -275.82112      1004.4365      1284.3055    
     10000   321.06978     -275.84845      1220.7189      1284.0907    
     10010   270.39738     -275.4325       1166.5477      1284.1007    
     10020   246.44284     -275.23141      756.63731      1284.3259    
     10030   245.56771     -275.21098      379.75568      1284.7004    
     10040   253.87354     -275.25665      10.281137      1285.1556    
     10050   287.86672     -275.50225     -591.49628      1285.6204    
     10060   272.91705     -275.34264     -1067.0142      1285.9895    
     10070   213.80331     -274.82369     -1058.1547      1286.1796    
     10080   246.05498     -275.04273     -957.83699      1286.1807    
     10090   290.83826     -275.34578     -641.77004      1286.0121    
     10100   281.82478     -275.20556     -20.127389      1285.7323    
     10110   309.17351     -275.36264      520.19572      1285.4485    
     10120   368.55751     -275.77663      780.66145      1285.2582    
     10130   334.15028     -275.43834      798.7211       1285.2135    
     10140   284.51875     -274.99401      240.54287      1285.313     
     10150   268.02596     -274.82458     -335.77307      1285.4638    
     10160   254.7091      -274.68024     -319.00788      1285.5703    
     10170   287.72341     -274.90932     -316.04327      1285.6231    
     10180   297.33312     -274.94345     -312.18217      1285.6229    
     10190   253.07382     -274.54267      60.09188       1285.5771    
     10200   304.93993     -274.92388      300.11111      1285.5439    
     10210   406.94934     -275.70585      272.72203      1285.5671    
     10220   353.32871     -275.23557      413.90447      1285.6525    
     10230   286.1257      -274.67194      323.83168      1285.8187    
     10240   327.42845     -274.99426      28.942874      1286.0499    
     10250   335.91345     -275.05111     -5.311375       1286.3016    
     10260   332.6437      -275.01918     -293.69996      1286.5585    
     10270   326.42663     -274.96959     -895.29491      1286.7659    
     10280   272.43936     -274.53331     -1130.9819      1286.823     
     10290   275.05184     -274.5553      -1070.389       1286.6804    
     10300   314.20963     -274.87216     -809.08488      1286.3442    
     10310   287.72857     -274.65402     -21.837174      1285.8666    
     10320   307.79156     -274.81392      801.96473      1285.3832    
     10330   399.48415     -275.56103      1017.445       1285.0351    
     10340   365.67182     -275.30291      1179.2991      1284.8777    
     10350   299.78356     -274.79276      1031.0504      1284.9384    
     10360   332.48433     -275.09116      333.95327      1285.1877    
     10370   305.60606     -274.91082     -64.393012      1285.516     
     10380   291.15803     -274.8327      -315.07965      1285.8461    
     10390   317.41641     -275.09247     -644.13313      1286.1276    
     10400   263.05952     -274.69843     -640.00986      1286.3056    
     10410   236.40978     -274.51941     -481.0478       1286.3761    
     10420   326.41363     -275.29483     -724.71914      1286.3547    
     10430   328.98729     -275.37322     -561.41998      1286.2117    
     10440   280.66658     -275.03775     -97.863293      1285.973     
     10450   313.29663     -275.36459      20.027989      1285.7103    
     10460   305.7474      -275.37249      210.50547      1285.4544    
     10470   277.00048     -275.20357      364.40549      1285.2384    
     10480   295.13308     -275.41469      132.84765      1285.0845    
     10490   270.52444     -275.27468     -36.327678      1284.9594    
     10500   238.07384     -275.05636      6.6160173      1284.8339    
     10510   260.48658     -275.27471      39.360376      1284.7114    
[...]
     22790   322.62036     -274.79423      11469.913      1271.8251    
     22800   313.10252     -274.70638      10161.876      1273.5914    
     22810   331.95784     -274.85835      7351.307       1277.1098    
     22820   362.61118     -275.10656      3486.694       1281.8532    
     22830   349.1122      -274.99336     -714.24709      1287.1154    
     22840   293.80591     -274.53444     -4465.7751      1292.1349    
     22850   319.03529     -274.72617     -7610.2542      1296.2245    
     22860   345.03407     -274.92868     -9850.1927      1298.8222    
     22870   320.87859     -274.73957     -10534.008      1299.5547    
     22880   304.56938     -274.63076     -9466.725       1298.3468    
     22890   309.39979     -274.70433     -7130.0735      1295.4486    
     22900   308.11849     -274.73017     -3899.5591      1291.3462    
     22910   327.57658     -274.92143     -215.35203      1286.6724    
     22920   355.23896     -275.18015      3320.8008      1282.1106    
     22930   339.41556     -275.09105      6401.1072      1278.2918    
     22940   323.38069     -275.00813      8328.2941      1275.7275    
     22950   313.49535     -274.98864      8807.1092      1274.7119    
     22960   277.00329     -274.75841      8134.4483      1275.2869    
     22970   284.0552      -274.88385      6431.3051      1277.2897    
     22980   304.47958     -275.11975      4118.3144      1280.3909    
     22990   313.80457     -275.26381      1229.7691      1284.1515    
     23000   286.43189     -275.09868     -1890.8501      1288.0412    
     23010   254.7958      -274.88078     -4573.4664      1291.4978    
     23020   275.33901     -275.07582     -6455.1297      1294.0422    
     23030   324.48467     -275.50713     -7421.0607      1295.3486    
     23040   296.4817      -275.31626     -7284.786       1295.2745    
     23050   266.20826     -275.10495     -6361.6488      1293.8777    
     23060   283.9071      -275.28073     -4637.2698      1291.3707    
     23070   285.13592     -275.31695     -2043.8379      1288.1104    
     23080   270.36925     -275.21236      744.38394      1284.5868    
     23090   291.95647     -275.39512      3002.1195      1281.3023    
     23100   261.72421     -275.1499       5004.4366      1278.661     
     23110   223.54013     -274.83344      6579.1476      1276.9961    
     23120   280.38747     -275.28763      7027.6839      1276.5446    
     23130   302.12075     -275.45561      6516.8057      1277.3556    
     23140   271.77004     -275.20289      5142.538       1279.3067    
     23150   298.12112     -275.41026      2884.4739      1282.1236    
     23160   321.8334      -275.59058      291.00045      1285.3903    
     23170   269.67739     -275.15021     -2178.9822      1288.6343    
     23180   244.90209     -274.92808     -4503.6139      1291.4031    
     23190   283.23366     -275.21226     -6170.4869      1293.2879    
     23200   305.1976      -275.36016     -6731.4254      1294.0102    
     23210   287.80482     -275.19239     -6350.1914      1293.4939    
     23220   258.67189     -274.93307     -5060.3939      1291.845     
     23230   258.68883     -274.90769     -2965.922       1289.3349    
     23240   306.31895     -275.25823     -573.26513      1286.3675    
     23250   319.76737     -275.32007      1860.8359      1283.391     
     23260   295.212       -275.07261      4071.905       1280.8423    
     23270   289.18076     -274.97763      5617.6117      1279.0974    
     23280   318.0133      -275.16673      6165.1918      1278.4024    
     23290   327.2629      -275.1997       5759.6034      1278.826     
     23300   326.27297     -275.15756      4446.5509      1280.2661    
     23310   305.19654     -274.95757      2618.1629      1282.4687    
     23320   276.6346      -274.69834      576.998        1285.0919    
     23330   296.03696     -274.82505     -1657.3234      1287.7548    
     23340   302.28591     -274.83894     -3518.0205      1290.0585    
     23350   291.13612     -274.71191     -4525.3592      1291.6781    
     23360   329.99399     -274.99368     -4842.7776      1292.4413    
     23370   377.09633     -275.3473      -4724.466       1292.3071    
     23380   335.97743     -274.99736     -3901.9081      1291.3276    
     23390   282.66592     -274.55757     -2461.983       1289.6769    
     23400   326.01898     -274.90452     -931.58986      1287.6292    
     23410   360.52873     -275.18091      655.46155      1285.4769    
     23420   320.66747     -274.85859      2184.3167      1283.5107    
     23430   302.01052     -274.71162      3149.7376      1281.9919    
     23440   315.26145     -274.82591      3606.9621      1281.0815    
     23450   301.23626     -274.71952      3886.2167      1280.8506    
     23460   319.01049     -274.87361      3568.9748      1281.3233    
     23470   345.82757     -275.10552      2618.8119      1282.4242    
     23480   299.06271     -274.73986      1524.8005      1283.9759    
     23490   290.65166     -274.68128      282.16458      1285.7692    
     23500   351.82816     -275.18703     -1090.4227      1287.572     
     23510   346.2694      -275.15281     -2143.4832      1289.1435    
     23520   313.55878     -274.8994      -3101.0291      1290.2913    
     23530   333.38404     -275.07457     -3849.2301      1290.8506    
     23540   332.0145      -275.08209     -3791.1292      1290.7092    
     23550   267.59621     -274.57606     -3004.435       1289.8947    
     23560   266.98009     -274.58336     -2128.164       1288.5577    
     23570   323.17047     -275.04989     -1016.0954      1286.8763    
     23580   326.96277     -275.0907       578.66574      1285.0691    
     23590   323.87802     -275.07857      2016.5076      1283.4185    
     23600   315.33499     -275.02535      2976.8309      1282.1755    
     23610   295.59983     -274.8822       3439.409       1281.5015    
     23620   320.1766      -275.10229      3429.1493      1281.4644    
     23630   330.61814     -275.21349      3079.2164      1282.0492    
     23640   298.46913     -274.98171      2274.503       1283.1763    
     23650   289.93208     -274.94072      954.75943      1284.686     
     23660   294.84834     -275.00724     -427.56627      1286.3382    
     23670   297.87544     -275.05658     -1653.2919      1287.882     
     23680   312.40617     -275.20063     -2801.0652      1289.0934    
     23690   294.85689     -275.08583     -3440.8327      1289.7769    
     23700   257.56404     -274.80695     -3312.2164      1289.8319    
     23710   286.72626     -275.06621     -2855.773       1289.2883    
     23720   307.49784     -275.25825     -2011.2033      1288.2472    
     23730   284.85272     -275.09597     -740.37408      1286.8778    
     23740   315.50061     -275.3666       394.83517      1285.4108    
     23750   343.29759     -275.62035      1222.7289      1284.0532    
     23760   269.72712     -275.05085      2020.3304      1282.9577    
     23770   239.89785     -274.82936      2486.2802      1282.2547    
     23780   278.99335     -275.16489      2618.584       1282.0181    
     23790   279.38416     -275.18348      2613.7652      1282.2647    
     23800   275.71755     -275.16666      2101.1505      1282.9763    
     23810   300.11406     -275.3773       1126.0983      1284.0502    
     23820   271.83253     -275.15683      226.15442      1285.3121    
     23830   270.89539     -275.15482     -815.0972       1286.5895    
     23840   308.10218     -275.46031     -1873.3351      1287.6939    
     23850   288.46634     -275.30248     -2403.735       1288.4457    
     23860   267.01022     -275.12881     -2529.9792      1288.7523    
     23870   278.15756     -275.21738     -2359.9801      1288.5983    
     23880   280.10968     -275.22695     -1825.0923      1288.0276    
     23890   290.00979     -275.29765     -1177.0404      1287.1433    
     23900   294.25676     -275.31847     -505.93406      1286.0707    
     23910   282.56231     -275.20618      238.17723      1284.9374    
     23920   266.52636     -275.05407      1091.2905      1283.8809    
     23930   256.87183     -274.94704      1916.2487      1283.0517    
     23940   268.79476     -275.00617      2425.2773      1282.5889    
     23950   316.52786     -275.34416      2479.2774      1282.5741    
     23960   336.76134     -275.44838      2227.174       1283.0104    
     23970   301.50732     -275.10379      1743.3235      1283.8448    
     23980   304.93892     -275.07664      730.13355      1284.9754    
     23990   314.03478     -275.09046     -509.30065      1286.2172    
     24000   284.82516     -274.79375     -1391.7894      1287.3519    
     24010   297.55881     -274.83951     -1885.1339      1288.2199    
     24020   335.97275     -275.08938     -2153.5373      1288.7336    
     24030   313.60133     -274.84857     -2201.5443      1288.8517    
     24040   289.05339     -274.60073     -1956.1523      1288.5745    
     24050   335.4138      -274.93163     -1484.6494      1287.9541    
     24060   356.211       -275.05628     -815.46762      1287.0852    
     24070   329.09819     -274.80302     -72.152428      1286.0939    
     24080   314.1598      -274.658        691.07198      1285.1177    
     24090   322.1907      -274.70408      1395.2246      1284.2932    
     24100   334.57019     -274.78965      1991.3761      1283.7442    
     24110   355.6068      -274.95264      2312.8131      1283.5716    
     24120   372.58865     -275.09421      1960.2436      1283.818     
     24130   341.86058     -274.85983      1340.958       1284.4192    
     24140   299.81786     -274.53802      614.5644       1285.2576    
     24150   295.99713     -274.52586     -258.96751      1286.1943    
     24160   321.45084     -274.7523      -959.7346       1287.0738    
     24170   322.34608     -274.78201     -1313.4145      1287.7723    
     24180   325.41298     -274.83297     -1529.134       1288.2249    
     24190   355.02178     -275.10772     -1706.6246      1288.3948    
     24200   339.36456     -275.02434     -1581.6726      1288.2604    
     24210   303.89089     -274.78097     -1257.6599      1287.8489    
     24220   335.21688     -275.08435     -1062.4442      1287.2184    
     24230   330.35727     -275.10065     -622.42462      1286.4168    
     24240   278.42224     -274.72914      88.955639      1285.528     
     24250   286.51512     -274.83785      826.75578      1284.679     
     24260   312.72762     -275.09318      1481.6497      1284.0015    
     24270   298.15689     -275.01362      1911.1483      1283.6097    
     24280   317.76658     -275.2095       1735.3531      1283.5686    
     24290   322.0555      -275.2816       1323.8651      1283.8462    
     24300   256.26572     -274.77521      1035.622       1284.3682    
     24310   253.20828     -274.76663      476.38872      1285.0694    
     24320   321.56602     -275.33394     -226.75617      1285.847     
     24330   328.39766     -275.40052     -633.48505      1286.5806    
     24340   314.01725     -275.29573     -1016.2634      1287.191     
     24350   314.15858     -275.30931     -1392.8308      1287.6105    
     24360   284.35774     -275.07734     -1628.8902      1287.7756    
     24370   264.25004     -274.91975     -1813.4747      1287.6453    
     24380   270.31271     -274.9707      -1691.305       1287.1946    
     24390   256.87517     -274.85755     -871.74441      1286.4596    
     24400   294.86435     -275.15878      50.487494      1285.5849    
     24410   326.36136     -275.4055       834.7162       1284.7385    
     24420   280.76353     -275.02661      1602.0934      1284.0665    
     24430   301.35999     -275.187        1847.1068      1283.6951    
     24440   349.25683     -275.57079      1683.8487      1283.6656    
     24450   290.66078     -275.09265      1430.2157      1283.9492    
     24460   259.56587     -274.83865      697.74222      1284.4854    
     24470   287.52483     -275.06088     -22.384121      1285.1452    
     24480   282.22082     -275.008       -256.51232      1285.8036    
     24490   307.76457     -275.2044      -543.00765      1286.4084    
     24500   338.56419     -275.44387     -1085.7999      1286.9049    
     24510   269.54788     -274.87405     -1303.3341      1287.2064    
     24520   238.43425     -274.61138     -1293.4402      1287.2727    
     24530   303.30083     -275.12249     -1164.8989      1287.107     
     24540   315.31597     -275.19737     -645.82093      1286.7431    
     24550   301.58118     -275.06395     -75.252517      1286.2738    
     24560   342.80725     -275.37802      263.46299      1285.8002    
     24570   348.83661     -275.4086       562.21953      1285.3889    
     24580   301.53738     -275.01242      686.98103      1285.0909    
     24590   276.41374     -274.79858      483.64491      1284.9234    
     24600   282.4252      -274.83456      272.35791      1284.8522    
     24610   287.24207     -274.85581      262.0902       1284.8404    
     24620   297.10948     -274.91364      280.61152      1284.8822    
     24630   295.91685     -274.87713      452.58453      1284.9827    
     24640   306.21058     -274.93004      663.76192      1285.1709    
     24650   341.75197     -275.18351      562.96624      1285.4778    
     24660   356.00243     -275.26284      268.12929      1285.8865    
     24670   332.41312     -275.03993     -57.352773      1286.3444    
     24680   294.31809     -274.70359     -338.10122      1286.792     
     24690   291.86913     -274.65604     -672.82354      1287.1757    
     24700   335.01457     -274.97304     -1055.1055      1287.4352    
     24710   370.41131     -275.22407     -1323.4859      1287.5051    
     24720   318.62034     -274.77226     -1193.7965      1287.345     
     24730   293.18682     -274.54092     -980.73098      1286.9753    
     24740   318.7575      -274.72142     -627.40328      1286.4389    
     24750   311.37274     -274.63058      59.900871      1285.8071    
     24760   314.20767     -274.62239      821.00151      1285.2028    
     24770   357.23292     -274.93903      1402.1954      1284.7603    
     24780   382.18779     -275.11216      1763.7621      1284.5838    
     24790   361.58635     -274.92742      1719.7969      1284.733     
     24800   345.43689     -274.79155      1108.3474      1285.1919    
     24810   332.71991     -274.69189      341.30593      1285.8516    
     24820   332.84992     -274.7036      -356.26667      1286.5725    
     24830   329.29259     -274.69249     -957.15438      1287.226     
     24840   306.68235     -274.53193     -1340.3178      1287.7052    
     24850   299.3068      -274.49863     -1678.7367      1287.9375    
     24860   313.27815     -274.64256     -1511.235       1287.8727    
     24870   360.3565      -275.0667      -984.34421      1287.5431    
     24880   373.81888     -275.23756     -575.41651      1287.0419    
     24890   325.92656     -274.92224     -194.21094      1286.4485    
     24900   290.18575     -274.70365      305.72201      1285.8358    
     24910   308.11285     -274.92066      773.92669      1285.2923    
     24920   331.37842     -275.18818      1013.9271      1284.8998    
     24930   303.81329     -275.04166      1057.0232      1284.7009    
     24940   290.86047     -275.00309      841.52011      1284.6994    
     24950   307.07665     -275.19726      501.45941      1284.855     
     24960   281.26004     -275.04129      321.25362      1285.109     
     24970   261.9784      -274.92492      59.901004      1285.4226    
     24980   289.85309     -275.1844      -309.31378      1285.7462    
     24990   294.43291     -275.2505      -402.28485      1286.0194    
     25000   283.49571     -275.18496     -353.94591      1286.2235    
Loop time of 1.72222 on 1 procs for 25000 steps with 64 atoms

Performance: 1254.193 ns/day, 0.019 hours/ns, 14516.118 timesteps/s, 929.032 katom-step/s
98.4% CPU use with 1 MPI tasks x 1 OpenMP threads

MPI task timing breakdown:
Section |  min time  |  avg time  |  max time  |%varavg| %total
---------------------------------------------------------------
Pair    | 1.5679     | 1.5679     | 1.5679     |   0.0 | 91.04
Neigh   | 0.00061913 | 0.00061913 | 0.00061913 |   0.0 |  0.04
Comm    | 0.041893   | 0.041893   | 0.041893   |   0.0 |  2.43
Output  | 0.014725   | 0.014725   | 0.014725   |   0.0 |  0.85
Modify  | 0.087913   | 0.087913   | 0.087913   |   0.0 |  5.10
Other   |            | 0.009136   |            |       |  0.53

Nlocal:             64 ave          64 max          64 min
Histogram: 1 0 0 0 0 0 0 0 0 0
Nghost:            557 ave         557 max         557 min
Histogram: 1 0 0 0 0 0 0 0 0 0
Neighs:              0 ave           0 max           0 min
Histogram: 1 0 0 0 0 0 0 0 0 0
FullNghs:         2196 ave        2196 max        2196 min
Histogram: 1 0 0 0 0 0 0 0 0 0

Total # of neighbors = 2196
Ave neighs/atom = 34.3125
Neighbor list builds = 5
Dangerous builds = 0


min_style cg
minimize 1e-10 1e-10 5000 10000
Per MPI rank memory allocation (min/avg/max) = 5.593 | 5.593 | 5.593 Mbytes
   Step          Temp          PotEng         Press          Volume    
     25000   283.49571     -275.18496     -353.94591      1286.2235    
     25010   283.49571     -277.53682     -1797.2642      1286.2235    
     25017   283.49571     -277.53691     -1797.2374      1286.2235    
Loop time of 0.00136932 on 1 procs for 17 steps with 64 atoms

99.7% CPU use with 1 MPI tasks x 1 OpenMP threads

Minimization stats:
  Stopping criterion = energy tolerance
  Energy initial, next-to-last, final = 
     -275.184960530314   -277.53690711823  -277.536907128486
  Force two-norm initial, final = 9.0489308 0.00034401538
  Force max component initial, final = 1.9597978 7.1247761e-05
  Final line search alpha, max atom move = 1 7.1247761e-05
  Iterations, force evaluations = 17 34

MPI task timing breakdown:
Section |  min time  |  avg time  |  max time  |%varavg| %total
---------------------------------------------------------------
Pair    | 0.0011813  | 0.0011813  | 0.0011813  |   0.0 | 86.27
Neigh   | 0          | 0          | 0          |   0.0 |  0.00
Comm    | 5.8634e-05 | 5.8634e-05 | 5.8634e-05 |   0.0 |  4.28
Output  | 4.96e-06   | 4.96e-06   | 4.96e-06   |   0.0 |  0.36
Modify  | 0          | 0          | 0          |   0.0 |  0.00
Other   |            | 0.0001244  |            |       |  9.08

Nlocal:             64 ave          64 max          64 min
Histogram: 1 0 0 0 0 0 0 0 0 0
Nghost:            557 ave         557 max         557 min
Histogram: 1 0 0 0 0 0 0 0 0 0
Neighs:              0 ave           0 max           0 min
Histogram: 1 0 0 0 0 0 0 0 0 0
FullNghs:         2186 ave        2186 max        2186 min
Histogram: 1 0 0 0 0 0 0 0 0 0

Total # of neighbors = 2186
Ave neighs/atom = 34.15625
Neighbor list builds = 0
Dangerous builds = 0
variable teng equal "c_eatoms"
variable natoms equal "count(all)"
variable ecoh equal "v_teng/v_natoms"
variable lengthx equal "lx/2"
variable lengthy equal "ly/2"
variable lengthz equal lz/${zdim}
variable lengthz equal lz/2

print "cohesive energy ${ecoh}"
cohesive energy -4.33651417388259
print "x_length equals ${lengthx}"
x_length equals 5.43761954554223
print "y_length equals ${lengthy}"
y_length equals 5.43761954554223
print "z_length equals ${lengthz}"
z_length equals 5.43761954554223

variable lp_x equal ${lengthx}
variable lp_x equal 5.43761954554223
variable lp_y equal ${lengthy}
variable lp_y equal 5.43761954554223
variable lp_z equal ${lengthz}
variable lp_z equal 5.43761954554223

variable lp_avg equal "(v_lp_x + v_lp_y + v_lp_z) / 3"

print "lattice parameter equals ${lp_avg}"
lattice parameter equals 5.43761954554223
Total wall time: 0:00:01
