LAMMPS (30 Mar 2026)
OMP_NUM_THREADS environment is not set. Defaulting to 1 thread.
  using 1 OpenMP thread(s) per MPI task

# ------------------ Initialization ------------------
units           metal
boundary        p p p
atom_style      atomic

# ------------------ Geometry Generation -------------
# Silicon diamond cubic lattice constant is 5.431 Angstroms

variable pwd_path getenv PWD

variable structure_file string ../structures/si_structure.txt

read_data ../structures/si_structure.txt
Reading data file ...
  orthogonal box = (0 0 0) to (16.29 16.29 16.29)
  1 by 1 by 1 MPI processor grid
  reading atoms ...
  216 atoms
  read_data CPU = 0.001 seconds

# ------------------ Interatomic Potential -----------
# Using the standard Stillinger-Weber (SW) potential
pair_style      sw
pair_coeff      * * ../potentials/Si.sw Si
Reading sw potential file ../potentials/Si.sw with DATE: 2007-06-11


# ------------------ Compute -----------------
compute eng all pe/atom 	# a variable named 'eng' is defined to store the potential energy for each atom
compute eatoms all reduce sum c_eng  #a variable named 'eatoms' is defined to store the sum of all 'eng' values
compute new all temp


# ------------------ Energy Minimization -------------
# Relax the structure to remove any initial overlapping/strain
thermo          10
thermo_style    custom step temp pe press vol

minimize 1.0e-6 1.0e-6 5000 10000
Neighbor list info ...
  update: every = 1 steps, delay = 0 steps, check = yes
  max neighbors/atom: 2000, page size: 100000
  master list distance cutoff = 5.77118
  ghost atom cutoff = 5.77118
  binsize = 2.88559, bins = 6 6 6
  1 neighbor lists, perpetual/occasional/extra = 1 0 0
  (1) pair sw, perpetual
      attributes: full, newton on
      pair build: full/bin/atomonly
      stencil: full/bin/3d
      bin: standard
Per MPI rank memory allocation (min/avg/max) = 4.343 | 4.343 | 4.343 Mbytes
   Step          Temp          PotEng         Press          Volume    
         0   0             -936.70522      532.56802      4322.7812    
         1   0             -936.70522      532.56802      4322.7812    
Loop time of 0.000382895 on 1 procs for 1 steps with 216 atoms

96.6% CPU use with 1 MPI tasks x 1 OpenMP threads

Minimization stats:
  Stopping criterion = quadratic factors are zero
  Energy initial, next-to-last, final = 
     -936.705223045316  -936.705223045316  -936.705223045316
  Force two-norm initial, final = 1.1685261e-17 1.1685261e-17
  Force max component initial, final = 8.6736205e-19 8.6736205e-19
  Final line search alpha, max atom move = 1 8.6736205e-19
  Iterations, force evaluations = 1 2

MPI task timing breakdown:
Section |  min time  |  avg time  |  max time  |%varavg| %total
---------------------------------------------------------------
Pair    | 0.00035667 | 0.00035667 | 0.00035667 |   0.0 | 93.15
Neigh   | 0          | 0          | 0          |   0.0 |  0.00
Comm    | 1.0341e-05 | 1.0341e-05 | 1.0341e-05 |   0.0 |  2.70
Output  | 0          | 0          | 0          |   0.0 |  0.00
Modify  | 0          | 0          | 0          |   0.0 |  0.00
Other   |            | 1.588e-05  |            |       |  4.15

Nlocal:            216 ave         216 max         216 min
Histogram: 1 0 0 0 0 0 0 0 0 0
Nghost:            950 ave         950 max         950 min
Histogram: 1 0 0 0 0 0 0 0 0 0
Neighs:              0 ave           0 max           0 min
Histogram: 1 0 0 0 0 0 0 0 0 0
FullNghs:         7344 ave        7344 max        7344 min
Histogram: 1 0 0 0 0 0 0 0 0 0

Total # of neighbors = 7344
Ave neighs/atom = 34
Neighbor list builds = 0
Dangerous builds = 0

# ------------------ Equilibration (NVT/NPT) ---------
reset_timestep  0
velocity all create ${temperature} 87287 loop geom
velocity all create 200 87287 loop geom

# Reference timestep for metal units with Silicon is typically 1-2 fs
timestep        0.001


# Tdamp - 100*Timestep
# Pdamp - 1000*Timestep
#
# Run NPT to fix temperature at 300K and pressure at 0 Bar
fix 1 all npt temp ${temperature} ${temperature} 0.1 iso ${pressure} ${pressure} 1.0
fix 1 all npt temp 200 ${temperature} 0.1 iso ${pressure} ${pressure} 1.0
fix 1 all npt temp 200 200 0.1 iso ${pressure} ${pressure} 1.0
fix 1 all npt temp 200 200 0.1 iso 0.0 ${pressure} 1.0
fix 1 all npt temp 200 200 0.1 iso 0.0 0.0 1.0

# Output settings

variable dump_path string "../results/lattice_parameter/si_out_${temperature}.dat"
../results/lattice_parameter/si_out_200.dat

dump 1 all custom 5000 ${dump_path} mass type xs ys zs
dump 1 all custom 5000 ../results/lattice_parameter/si_out_200.dat mass type xs ys zs

dump_modify 1 sort id

variable first_run_step equal ${steps}
variable first_run_step equal 50000

# Run the simulation
run ${first_run_step}
run 50000
Per MPI rank memory allocation (min/avg/max) = 3.218 | 3.218 | 3.218 Mbytes
   Step          Temp          PotEng         Press          Volume    
         0   200           -936.70522      1905.9424      4322.7812    
        10   108.02489     -934.14105      1901.3746      4323.6803    
        20   62.861493     -932.86993      1155.8522      4326.3009    
        30   123.70386     -934.50653     -187.72015      4329.9568    
        40   76.408771     -933.10021     -946.33166      4333.4988    
        50   59.864158     -932.58385     -1472.4261      4336.1726    
        60   129.86351     -934.44022     -1902.6885      4337.4655    
        70   100.15029     -933.51641     -1532.6812      4337.0409    
        80   90.106174     -933.17583     -922.75144      4335.1925    
        90   142.95208     -934.55841     -403.53362      4332.4662    
       100   108.18578     -933.49011      449.66531      4329.3974    
       110   97.191899     -933.10423      1065.8586      4326.7326    
       120   137.17208     -934.10529      1272.8047      4325.0329    
       130   102.9013      -933.03351      1569.1194      4324.5423    
       140   102.24119     -932.92289      1440.1151      4325.4892    
       150   150.78398     -934.14499      765.60454      4327.7436    
       160   121.57956     -933.19655      224.92027      4330.7413    
       170   113.72981     -932.87163     -387.88022      4333.9534    
       180   155.34188     -933.8941      -1130.9668      4336.7959    
       190   129.25935     -933.02611     -1429.9971      4338.6224    
       200   114.3012      -932.49797     -1510.964       4339.1237    
       210   153.31054     -933.45068     -1546.845       4338.203     
       220   139.66493     -932.92472     -1019.6972      4335.8757    
       230   116.80125     -932.16925     -153.58082      4332.6171    
       240   139.76387     -932.67955      566.00744      4329.1982    
       250   135.26723     -932.40975      1325.1982      4326.3164    
       260   126.2041      -932.02609      1941.543       4324.6676    
       270   164.99306     -932.9594       1966.889       4324.7902    
       280   176.07886     -933.1013       1578.3989      4326.7307    
       290   145.14524     -932.0998       901.48029      4330.1436    
       300   159.9212      -932.37787     -195.77248      4334.3829    
       310   174.29897     -932.62278     -1231.8112      4338.4626    
       320   152.37086     -931.86686     -1880.0831      4341.4306    
       330   155.24748     -931.81226     -2208.0463      4342.6579    
       340   166.75701     -931.98751     -1949.5402      4341.8528    
       350   161.47747     -931.69731     -1093.3873      4339.2589    
       360   193.82128     -932.44671     -208.96661      4335.6314    
       370   212.13524     -932.79062      633.50021      4331.8015    
       380   165.17264     -931.34635      1487.388       4328.57      
       390   158.27768     -931.03961      1857.0212      4326.6919    
       400   186.28926     -931.68445      1751.6061      4326.5186    
       410   178.30525     -931.32326      1434.0642      4327.981     
       420   177.22042     -931.16374      776.96963      4330.7735    
       430   183.28767     -931.19809     -18.43942       4334.3023    
       440   175.13292     -930.83836     -662.51885      4337.8496    
       450   209.99069     -931.66879     -1328.5141      4340.7863    
       460   213.57985     -931.62388     -1663.8658      4342.5123    
       470   173.06184     -930.38235     -1484.7661      4342.7214    
       480   208.87123     -931.26827     -1185.0455      4341.5379    
       490   238.4485      -931.96563     -637.82697      4339.2562    
       500   197.80088     -930.73563      125.23799      4336.392     
       510   226.04336     -931.43695      513.72455      4333.6069    
       520   235.21977     -931.6113       863.67065      4331.2998    
       530   154.53575     -929.31204      1396.7724      4329.824     
       540   188.12694     -930.19084      1361.0936      4329.61      
       550   253.93345     -931.93886      1040.4327      4330.6578    
       560   183.15689     -929.90942      928.15777      4332.7219    
       570   191.45026     -930.0929       247.90174      4335.6272    
       580   269.5669      -932.20207     -745.92882      4338.7599    
       590   200.96534     -930.257       -1076.1562      4341.2744    
       600   170.9659      -929.40087     -1314.3196      4342.7952    
       610   249.87349     -931.56375     -1645.0625      4343.0719    
       620   224.45377     -930.84089     -1279.7886      4341.862     
       630   191.87552     -929.93661     -604.52956      4339.4654    
       640   233.67164     -931.10378     -39.83264       4336.4776    
       650   216.68437     -930.64824      698.37034      4333.4623    
       660   207.162       -930.40877      1268.3237      4331.0811    
       670   235.57192     -931.23662      1549.7648      4329.8631    
       680   216.53372     -930.76243      1658.8495      4330.0955    
       690   231.95563     -931.26095      1080.6873      4331.8398    
       700   227.20151     -931.22473      153.041        4334.5924    
       710   142.35734     -928.94133     -449.26703      4337.549     
       720   182.2115      -930.09373     -1160.7522      4340.0923    
       730   255.21393     -932.18381     -1600.5502      4341.5815    
       740   193.45268     -930.54736     -1241.4932      4341.6426    
       750   184.20157     -930.35379     -829.07556      4340.5351    
       760   254.62688     -932.3905      -571.29661      4338.6243    
       770   221.51554     -931.57879      75.128565      4336.2045    
       780   178.99048     -930.49053      635.82055      4333.8376    
       790   196.78725     -931.06842      765.39512      4332.0209    
       800   182.31798     -930.74127      904.34464      4330.9236    
       810   192.47817     -931.08758      917.13384      4330.6651    
       820   211.80022     -931.69344      757.94781      4331.2601    
       830   179.31031     -930.8555       585.98088      4332.5834    
       840   176.40197     -930.8243       162.19372      4334.4547    
       850   199.8452      -931.51895     -350.63821      4336.4936    
       860   193.49771     -931.38292     -646.64765      4338.2458    
       870   196.46975     -931.50298     -902.3101       4339.4089    
       880   202.51612     -931.70934     -1006.9187      4339.7451    
       890   188.77307     -931.36356     -742.43128      4339.1689    
       900   199.46124     -931.69314     -439.22266      4337.8915    
       910   214.86906     -932.1573      -218.52245      4336.1841    
       920   195.59194     -931.66208      119.8455       4334.2719    
       930   172.67402     -931.05881      443.00337      4332.459     
       940   160.19817     -930.7309       631.05487      4331.0398    
       950   154.83504     -930.5817       809.90977      4330.2077    
       960   176.41433     -931.16294      924.44729      4330.1305    
       970   201.71718     -931.83284      906.85933      4330.9196    
       980   198.82744     -931.71551      742.62044      4332.5694    
       990   193.49609     -931.53083      278.05402      4334.9226    
      1000   208.11246     -931.89765     -496.92376      4337.5454    
      1010   188.41633     -931.30993     -1099.9931      4339.7518    
      1020   175.76846     -930.91729     -1427.2415      4340.9688    
      1030   208.78101     -931.78396     -1456.9924      4340.8733    
      1040   206.85427     -931.67592     -962.10169      4339.4436    
      1050   175.70179     -930.76182     -201.00293      4337.1132    
      1060   211.80342     -931.71155      281.9853       4334.5425    
      1070   211.53092     -931.64402      738.8604       4332.2137    
      1080   165.35176     -930.31058      1162.5294      4330.5603    
      1090   198.04965     -931.16445      1137.0318      4329.95      
      1100   217.43559     -931.63469      962.78475      4330.401     
      1110   164.40311     -930.10191      850.15793      4331.7842    
      1120   188.78828     -930.72037      341.3346       4333.9607    
      1130   235.3295      -931.93268     -310.65601      4336.4874    
      1140   209.21006     -931.13714     -744.12762      4338.7839    
      1150   181.35906     -930.31097     -1077.5048      4340.4208    
      1160   185.51925     -930.37135     -1231.2717      4341.0778    
      1170   214.01232     -931.09795     -1045.8669      4340.6078    
      1180   243.39385     -931.8505      -588.66102      4339.1644    
      1190   221.25562     -931.19228     -34.69953       4337.156     
      1200   207.74746     -930.79278      298.64021      4335.0703    
      1210   206.12029     -930.7299       572.38149      4333.2369    
      1220   174.95732     -929.84547      953.74754      4331.9354    
      1230   209.11777     -930.77081      1019.9702      4331.4931    
      1240   254.52135     -932.01027      885.58774      4331.9999    
      1250   211.47791     -930.81623      777.4486       4333.3675    
      1260   202.09394     -930.56807      333.69355      4335.4747    
      1270   241.04117     -931.67289     -391.0254       4337.9177    
      1280   194.07937     -930.40281     -891.1599       4340.0636    
      1290   170.94986     -929.7883      -1362.6924      4341.406     
      1300   197.26863     -930.5406      -1610.3323      4341.4977    
      1310   192.29836     -930.41926     -1274.819       4340.1132    
      1320   203.03609     -930.73369     -589.87459      4337.522     
      1330   210.22452     -930.95109      324.94429      4334.347     
      1340   202.31794     -930.74955      1217.9166      4331.4285    
      1350   242.56869     -931.89741      1616.3577      4329.5718    
      1360   232.52623     -931.67581      1821.7726      4329.2059    
      1370   187.82735     -930.49722      1700.6195      4330.5437    
      1380   234.94987     -931.8766       721.69539      4333.4533    
      1390   234.28286     -931.95556     -372.83032      4337.1096    
      1400   155.80187     -929.85571     -1081.693       4340.5327    
      1410   190.64486     -930.88005     -1909.9755      4342.9861    
      1420   224.15699     -931.87922     -2306.1665      4343.7093    
      1430   154.12688     -929.99271     -1769.3079      4342.3348    
      1440   165.19521     -930.33564     -1061.2829      4339.2568    
      1450   216.08815     -931.77778     -209.67801      4335.12      
      1460   190.26151     -931.08584      1029.7182      4330.7408    
      1470   185.42922     -930.96979      2007.7707      4327.2304    
      1480   213.74199     -931.77422      2379.3028      4325.5031    
      1490   197.47657     -931.34492      2313.8271      4325.9671    
      1500   200.39863     -931.45227      1576.5065      4328.5845    
      1510   206.72336     -931.65678      468.32529      4332.734     
      1520   166.58206     -930.56298     -455.88086      4337.4512    
      1530   177.6266      -930.87538     -1396.1237      4341.8465    
      1540   240.76181     -932.63012     -2232.3541      4345.0221    
      1550   224.59451     -932.20053     -2370.8176      4346.2045    
      1560   181.1636      -931.02542     -2073.925       4345.1872    
      1570   188.49376     -931.25733     -1624.1022      4342.1791    
      1580   188.53573     -931.28054     -718.71486      4337.5999    
      1590   168.62609     -930.73778      450.98605      4332.2643    
      1600   173.03119     -930.85463      1441.0724      4327.2291    
      1610   182.10209     -931.08625      2311.818       4323.4461    
      1620   166.66211     -930.62599      2977.403       4321.759     
      1630   177.68638     -930.89231      2899.4584      4322.7926    
      1640   209.0307      -931.70873      2134.9442      4326.5463    
      1650   220.19722     -931.95886      999.51913      4332.3949    
      1660   222.49984     -931.96821     -503.62628      4339.3129    
      1670   225.15382     -931.99445     -2128.5357      4345.9144    
      1680   210.72207     -931.55726     -3408.9396      4350.6734    
      1690   191.45444     -930.99817     -4095.1623      4352.3284    
      1700   171.5589      -930.42826     -3811.8507      4350.1781    
      1710   153.2076      -929.89504     -2393.9555      4344.4311    
      1720   186.09525     -930.76217     -385.60593      4336.3285    
      1730   223.02961     -931.70852      1858.0348      4327.7199    
      1740   208.14767     -931.21059      3900.7464      4320.6934    
      1750   226.38233     -931.64822      4733.6764      4317.1152    
      1760   253.7768      -932.36564      4215.3859      4317.8237    
      1770   181.26311     -930.34061      3039.9996      4322.4889    
      1780   152.06706     -929.52088      1102.05        4330.0788    
      1790   207.95981     -931.03761     -1213.2377      4338.8575    
      1800   177.96648     -930.14676     -2750.4979      4346.7517    
      1810   171.30988     -929.90393     -3646.274       4352.2431    
      1820   264.85123     -932.43397     -4149.1717      4354.3859    
      1830   250.28951     -931.98724     -3614.3121      4352.6905    
      1840   184.38693     -930.15385     -2326.5685      4347.5718    
      1850   222.33269     -931.2099      -905.26975      4340.1498    
      1860   222.89895     -931.22609      936.38632      4331.783     
      1870   186.38755     -930.21144      2760.9472      4324.1688    
      1880   207.14152     -930.78672      3832.3532      4318.9737    
      1890   201.49718     -930.63438      4275.115       4317.2601    
      1900   204.54931     -930.73534      3858.9146      4319.4799    
      1910   232.86745     -931.55416      2502.9432      4325.3106    
      1920   198.11674     -930.62887      665.62463      4333.5926    
      1930   200.85207     -930.73736     -1511.5786      4342.6417    
      1940   228.8992      -931.55301     -3450.136       4350.443     
      1950   182.60854     -930.31257     -4440.8473      4355.1732    
      1960   188.95878     -930.54046     -4699.8781      4355.792     
      1970   217.02999     -931.39927     -4038.3409      4351.9997    
      1980   158.15246     -929.84522     -2118.9582      4344.4098    
      1990   185.34556     -930.66113      170.25003      4334.7327    
      2000   254.63008     -932.66469      2357.4206      4325.0883    
      2010   197.91789     -931.19115      4401.6607      4317.5471    
      2020   182.85213     -930.86782      5380.6848      4313.9642    
      2030   229.2843      -932.28905      4935.7634      4315.2735    
      2040   205.27098     -931.77663      3422.1225      4321.1652    
      2050   190.99772     -931.50923      979.90054      4330.3004    
      2060   182.06397     -931.35142     -1645.9164      4340.493     
      2070   143.61991     -930.31964     -3675.6896      4349.3274    
      2080   161.24895     -930.81462     -4935.6885      4354.8412    
      2090   182.89411     -931.41474     -4999.236       4355.8116    
      2100   177.5647      -931.26645     -3860.6706      4352.1227    
      2110   222.35682     -932.51158     -2154.082       4344.7629    
      2120   220.38377     -932.45896      23.691302      4335.3344    
      2130   158.95872     -930.74496      2305.702       4325.8648    
      2140   183.45483     -931.40229      3797.158       4318.4217    
      2150   200.71245     -931.85028      4612.0299      4314.4297    
      2160   172.58914     -931.04594      4743.9554      4314.6761    
      2170   195.75802     -931.6733       3672.9597      4319.2781    
      2180   198.09383     -931.71559      1734.4381      4327.3194    
      2190   166.81762     -930.81383     -539.23075      4337.0686    
      2200   188.68703     -931.3681      -2843.0875      4346.4136    
      2210   187.49801     -931.26302     -4378.5959      4353.2208    
      2220   164.3851      -930.55453     -4809.3595      4356.015     
      2230   213.87371     -931.86541     -4415.872       4354.3124    
      2240   230.33329     -932.25951     -2998.3356      4348.4805    
      2250   171.18525     -930.5703      -756.06247      4339.8425    
      2260   197.82499     -931.25883      1264.9192      4330.4236    
      2270   241.05703     -932.38953      2965.5329      4322.1282    
      2280   188.01566     -930.86169      4380.39        4316.5599    
      2290   154.09835     -929.88215      4760.9296      4314.9809    
      2300   204.66072     -931.24776      3928.6792      4317.7522    
      2310   210.44268     -931.36379      2543.4547      4324.1941    
      2320   188.26399     -930.70992      640.35504      4333.0443    
      2330   204.07429     -931.10168     -1683.7074      4342.5395    
      2340   203.48999     -931.02757     -3593.8029      4350.5519    
      2350   184.72765     -930.45404     -4580.5437      4355.285     
      2360   212.40201     -931.181       -4686.2632      4355.7567    
      2370   224.50027     -931.48861     -3741.61        4351.8615    
      2380   200.49075     -930.80988     -1971.8367      4344.4687    
      2390   193.51754     -930.60183      173.39746      4335.221     
      2400   210.41311     -931.04343      2349.5303      4326.1208    
      2410   222.36147     -931.34448      4061.0255      4319.1726    
      2420   232.53304     -931.61623      4760.404       4315.9276    
      2430   208.19984     -930.95722      4463.4621      4317.0505    
      2440   190.37134     -930.49138      3184.8739      4322.2853    
      2450   211.18521     -931.09776      1083.1628      4330.4762    
      2460   194.1661      -930.64437     -1113.9361      4339.7357    
      2470   166.06363     -929.86485     -2994.354       4348.0262    
      2480   209.44959     -931.06154     -4418.8845      4353.5533    
      2490   218.53403     -931.31543     -4688.2945      4355.0033    
      2500   177.65734     -930.19682     -3745.0097      4352.1055    
      2510   209.38307     -931.09651     -2267.9225      4345.6905    
      2520   246.24801     -932.14456     -364.01932      4337.1587    
      2530   184.88516     -930.46872      1911.5548      4328.3172    
      2540   180.74912     -930.37118      3569.8039      4321.2149    
      2550   236.44641     -931.94708      4266.6618      4317.3715    
      2560   211.54265     -931.31637      4282.1275      4317.4655    
      2570   191.02276     -930.82657      3329.061       4321.4932    
      2580   223.19239     -931.82287      1483.6562      4328.5884    
      2590   200.95342     -931.32462     -498.40505      4337.1077    
      2600   171.06047     -930.59521     -2343.962       4345.2079    
      2610   183.28644     -931.02242     -3789.7345      4351.1529    
      2620   179.20916     -930.99227     -4346.3424      4353.5966    
      2630   182.43007     -931.15777     -3997.1892      4351.9946    
      2640   204.45986     -931.84768     -2828.3095      4346.6673    
      2650   184.13299     -931.34929     -895.3206       4338.7311    
      2660   179.63576     -931.2637       1143.5914      4329.9631    
      2670   197.13869     -931.77097      2846.1916      4322.2482    
      2680   182.71527     -931.38075      4029.6152      4317.1634    
      2690   184.59197     -931.44144      4269.7867      4315.7672    
      2700   184.40637     -931.44671      3688.8104      4318.2959    
      2710   157.40651     -930.7          2594.4734      4324.25      
      2720   201.71628     -931.91994      743.28625      4332.598     
      2730   248.18397     -933.18721     -1446.2646      4341.6505    
      2740   193.10896     -931.64254     -3185.5287      4349.41      
      2750   167.11553     -930.9075      -4428.078       4354.2103    
      2760   183.68478     -931.35313     -4842.0022      4354.8814    
      2770   159.00878     -930.65214     -3958.6585      4351.0681    
      2780   179.93112     -931.21151     -2220.4447      4343.575     
      2790   214.72893     -932.13396      32.715368      4334.0385    
      2800   183.69884     -931.21631      2458.6056      4324.5703    
      2810   186.98788     -931.24958      4148.4899      4317.3616    
      2820   204.77438     -931.6854       4822.0756      4313.9553    
      2830   155.64377     -930.27637      4637.1551      4314.9871    
      2840   166.35131     -930.53886      3298.3592      4320.2582    
      2850   223.15272     -932.06088      1263.0678      4328.574     
      2860   197.45154     -931.28633     -637.7348       4338.1171    
      2870   187.07068     -930.94418     -2521.9719      4347.083     
      2880   224.25719     -931.92009     -4171.4811      4353.6955    
      2890   213.08924     -931.56979     -4791.9408      4356.4448    
      2900   188.69245     -930.87748     -4275.8134      4354.7399    
      2910   210.96285     -931.4921      -2991.0098      4349.0443    
      2920   223.69506     -931.84475     -1108.6316      4340.584     
      2930   210.13014     -931.46898      988.25422      4331.123     
      2940   189.81416     -930.90062      2836.749       4322.5995    
      2950   166.8095      -930.24762      4107.9643      4316.7096    
      2960   175.37225     -930.46695      4438.0455      4314.5901    
      2970   180.17029     -930.58038      3930.0963      4316.5483    
      2980   154.14415     -929.83443      2842.4514      4322.1372    
      2990   184.82128     -930.64979      1141.2337      4330.3468    
      3000   257.51107     -932.60671     -850.75226      4339.6185    
      3010   240.14921     -932.07509     -2513.4011      4348.1334    
      3020   200.45741     -930.94949     -3857.8027      4354.3043    
      3030   235.7733      -931.9247      -4764.2838      4356.8488    
      3040   218.86281     -931.47679     -4461.6852      4354.9732    
      3050   158.11049     -929.81892     -3055.3528      4348.9664    
      3060   191.8633      -930.77354     -1254.7321      4340.118     
      3070   215.08551     -931.41839      995.24445      4330.1622    
      3080   184.9916      -930.57017      3302.8166      4321.1895    
      3090   213.11565     -931.33658      4724.201       4315.2637    
      3100   228.61807     -931.76938      5064.465       4313.6761    
      3110   175.40789     -930.31384      4372.4795      4316.7362    
      3120   173.79303     -930.29042      2587.1726      4323.7909    
      3130   204.65822     -931.1517       331.99472      4333.2381    
      3140   203.37142     -931.10404     -1817.7088      4343.0151    
      3150   202.5785      -931.06419     -3611.5085      4351.1054    
      3160   197.49659     -930.9069      -4600.1326      4355.8388    
      3170   204.75283     -931.10211     -4704.7269      4356.2752    
      3180   229.30713     -931.7957      -3977.2999      4352.3161    
      3190   195.63997     -930.88621     -2156.5742      4344.7034    
      3200   177.00959     -930.38499      181.95402      4335.1362    
      3210   218.41144     -931.5362       2282.5338      4325.7667    
      3220   211.70185     -931.35071      4066.628       4318.5592    
      3230   194.86467     -930.89631      4978.0149      4315.1113    
      3240   232.90873     -931.99363      4451.8091      4316.1978    
      3250   208.64319     -931.3943       3074.5458      4321.3749    
      3260   147.81566     -929.77316      1237.2732      4329.3922    
      3270   173.76927     -930.54029     -1023.8921      4338.5292    
      3280   204.42389     -931.42963     -2885.6423      4346.7301    
      3290   190.35419     -931.07753     -3855.5395      4352.2712    
      3300   211.6091      -931.71839     -4250.2552      4354.1954    
      3310   223.14348     -932.11782     -3905.011       4352.15      
      3320   176.43341     -930.9069      -2594.6257      4346.5043    
      3330   174.31943     -930.9157      -894.51317      4338.4691    
      3340   198.19263     -931.63493      962.61907      4329.6491    
      3350   167.42408     -930.81712      2943.9098      4321.7963    
      3360   172.34853     -930.9718       4234.7125      4316.6776    
      3370   217.62182     -932.25227      4482.5725      4315.445     
      3380   191.51439     -931.563        3993.2318      4318.3445    
      3390   176.89748     -931.19161      2525.6473      4324.8907    
      3400   222.82348     -932.49504      317.5786       4333.7341    
      3410   206.43044     -932.06307     -1728.4328      4342.8866    
      3420   168.62767     -931.02545     -3499.1067      4350.419     
      3430   188.11636     -931.5725      -4844.2044      4354.6553    
      3440   168.40116     -931.03173     -4895.5548      4354.3992    
      3450   139.13944     -930.22138     -3702.8416      4349.614     
      3460   187.85028     -931.55847     -1896.3071      4341.402     
      3470   192.59602     -931.6405       613.96058      4331.5191    
      3480   172.19352     -931.00454      3153.4646      4322.2823    
      3490   223.81129     -932.3512       4658.4542      4315.9616    
      3500   233.62735     -932.53758      5137.0493      4313.9375    
      3510   181.28003     -931.03299      4540.4677      4316.6268    
      3520   185.19705     -931.10473      2607.2129      4323.4336    
      3530   179.23015     -930.88207      251.10944      4332.6354    
      3540   166.81898     -930.46343     -1843.3702      4342.0799    
      3550   212.27444     -931.63085     -3588.2004      4349.7891    
      3560   206.97542     -931.38535     -4377.6714      4354.1628    
      3570   168.80878     -930.25685     -4150.1223      4354.4624    
      3580   227.49418     -931.83101     -3465.4452      4350.8667    
      3590   247.08585     -932.32889     -2003.6962      4344.0871    
      3600   173.69538     -930.26676      123.34998      4335.5294    
      3610   196.12808     -930.86352      1809.686       4327.1089    
      3620   226.69417     -931.67967      3132.422       4320.4126    
      3630   147.30268     -929.44817      4334.5673      4316.6821    
      3640   159.48723     -929.76402      4409.2029      4316.9188    
      3650   256.98166     -932.44072      3271.9066      4321.1665    
      3660   227.00372     -931.59482      1831.5838      4328.4438    
      3670   181.95107     -930.34403     -82.331749      4337.3819    
      3680   231.30801     -931.70677     -2391.3744      4346.1819    
      3690   228.57245     -931.62719     -3992.1571      4352.7596    
      3700   185.65775     -930.44656     -4618.9559      4355.6155    
      3710   191.60432     -930.63114     -4478.5991      4354.1445    
      3720   193.1418      -930.69683     -3321.8316      4348.5326    
      3730   178.29246     -930.29935     -1256.2526      4339.9054    
      3740   188.11077     -930.56736      1123.6169      4330.1913    
      3750   206.3191      -931.04863      3321.4087      4321.5969    
      3760   233.7939      -931.79014      4747.4571      4316.1061    
      3770   233.62028     -931.79202      5128.4739      4314.9936    
      3780   216.62741     -931.36013      4324.3085      4318.5713    
      3790   209.30878     -931.21255      2409.504       4326.0813    
      3800   197.05456     -930.92343     -119.91657      4335.7715    
      3810   177.4759      -930.40915     -2531.3414      4345.3259    
      3820   195.71136     -930.9317      -4319.6698      4352.502     
      3830   198.72443     -931.03677     -4978.5619      4355.6504    
      3840   174.96906     -930.40636     -4399.0753      4354.1714    
      3850   189.54342     -930.84095     -2969.9507      4348.6154    
      3860   215.4541      -931.58676     -1092.5072      4340.3437    
      3870   206.23256     -931.35351      920.54935      4331.1337    
      3880   188.00744     -930.86422      2774.6916      4322.8586    
      3890   177.81399     -930.5896       4173.2719      4317.2112    
      3900   199.37078     -931.19819      4694.8713      4315.4251    
      3910   231.90681     -932.1298       4179.9618      4317.94      
      3920   225.28799     -932.00263      2798.1694      4324.2723    
      3930   208.02364     -931.59627      695.43648      4333.1347    
      3940   201.17993     -931.48327     -1726.5995      4342.5824    
      3950   167.16672     -930.60591     -3679.1528      4350.3978    
      3960   159.1688      -930.4378      -4784.3836      4354.7618    
      3970   188.08623     -931.30438     -4842.3067      4354.6561    
      3980   189.28381     -931.41421     -3694.7059      4350.0761    
      3990   189.21399     -931.48823     -1736.9113      4342.1217    
      4000   192.59913     -931.64971      482.9019       4332.636     
      4010   172.5897      -931.14117      2568.7731      4323.6921    
      4020   177.69376     -931.3141       4005.704       4317.1814    
      4030   190.92846     -931.71324      4609.4962      4314.3926    
      4040   178.68185     -931.40919      4381.1319      4315.8492    
      4050   187.26706     -931.6847       3189.5554      4321.2974    
      4060   207.29849     -932.27536      1238.2363      4329.6288    
      4070   189.86791     -931.81589     -944.98024      4339.0562    
      4080   171.89329     -931.32442     -2949.6721      4347.5539    
      4090   181.47221     -931.58537     -4330.1394      4353.2651    
      4100   191.888       -931.86868     -4749.4498      4354.9222    
      4110   184.0996      -931.65218     -4157.1026      4352.161     
      4120   170.23567     -931.26347     -2649.0848      4345.5817    
      4130   179.51709     -931.49701     -550.54614      4336.6306    
      4140   192.02831     -931.78711      1673.9136      4327.276     
      4150   177.83753     -931.30916      3529.1935      4319.562     
      4160   178.56432     -931.23105      4515.3252      4315.1466    
      4170   198.37703     -931.66697      4514.0255      4314.8921    
      4180   180.358       -931.05091      3727.9408      4318.7786    
      4190   175.69768     -930.81797      2098.3996      4326.0418    
      4200   206.54747     -931.55952     -82.513519      4335.1707    
      4210   199.95891     -931.26116     -2084.887       4344.1765    
      4220   179.34563     -930.59641     -3582.6059      4351.1964    
      4230   216.8124      -931.56063     -4531.3172      4354.8205    
      4240   225.53177     -931.74861     -4425.3212      4354.2201    
      4250   178.39351     -930.41557     -3147.9294      4349.5503    
      4260   199.63163     -930.98625     -1362.4366      4342.0099    
      4270   253.43797     -932.45429      587.72676      4333.296     
      4280   221.36515     -931.5513       2565.1227      4325.2468    
      4290   173.49616     -930.21661      3900.8404      4319.6373    
      4300   191.8736      -930.72225      4068.7235      4317.6254    
      4310   196.21828     -930.83965      3413.1323      4319.3567    
      4320   176.28888     -930.28334      2251.8142      4324.2133    
      4330   183.31574     -930.46544      722.97535      4331.1027    
      4340   207.73512     -931.11407     -905.05314      4338.6067    
      4350   211.66024     -931.18699     -2283.0808      4345.222     
      4360   194.39486     -930.67541     -3160.8172      4349.675     
      4370   200.98806     -930.831       -3468.452       4351.1561    
      4380   232.95203     -931.69881     -3093.6356      4349.4101    
      4390   221.21725     -931.36943     -1908.6316      4344.8429    
      4400   199.07253     -930.76015     -373.59975      4338.5684    
      4410   223.96167     -931.45742      976.32328      4332.0063    
      4420   233.46846     -931.73833      2106.9689      4326.4227    
      4430   198.09815     -930.78649      2929.8875      4322.8518    
      4440   185.01011     -930.45733      3032.429       4321.9935    
      4450   184.94977     -930.48805      2491.0048      4323.9224    
      4460   191.46204     -930.69739      1551.6067      4328.1286    
      4470   206.2749      -931.13416      376.37454      4333.7335    
      4480   211.94302     -931.31799     -947.33531      4339.6345    
      4490   201.98454     -931.07087     -2188.6253      4344.6047    
      4500   185.57334     -930.64519     -2992.1799      4347.5103    
      4510   177.26724     -930.4411      -3089.3949      4347.6317    
      4520   195.69223     -930.97848     -2443.5361      4344.9069    
      4530   199.12313     -931.09828     -1106.7887      4339.9769    
      4540   199.32871     -931.12357      529.25124      4334.095     
      4550   234.71903     -932.13031      1854.185       4328.7548    
      4560   229.23429     -932.02405      2655.4705      4325.1708    
      4570   195.40595     -931.14584      2790.9064      4324.0545    
      4580   203.8694      -931.45196      2248.1811      4325.5008    
      4590   192.84138     -931.22258      1350.1421      4329.0107    
      4600   174.07757     -930.76749      143.85628      4333.7303    
      4610   186.5998      -931.17        -1117.3681      4338.5422    
      4620   177.8704      -930.97306     -1942.0218      4342.3042    
      4630   169.60466     -930.77504     -2304.272       4344.2487    
      4640   201.85767     -931.70005     -2280.9583      4344.0401    
      4650   182.76047     -931.19675     -1602.1846      4341.7508    
      4660   173.56276     -930.95834     -632.43202      4338.0083    
      4670   217.96679     -932.20212      326.43455      4333.7148    
      4680   212.26112     -932.05667      1324.6752      4329.7849    
      4690   190.07489     -931.45845      1897.2081      4327.1044    
      4700   187.38447     -931.40246      1885.1832      4326.1781    
      4710   160.42623     -930.66356      1647.7588      4327.0103    
      4720   176.8543      -931.11708      1088.6058      4329.3511    
      4730   208.77067     -931.98691      358.65835      4332.6795    
      4740   180.91046     -931.18768     -234.90849      4336.336     
      4750   202.35283     -931.75039     -996.65364      4339.7301    
      4760   227.84437     -932.41351     -1622.1524      4342.1744    
      4770   162.17156     -930.54545     -1678.0993      4343.1305    
      4780   182.10823     -931.04996     -1754.4676      4342.4983    
      4790   236.97184     -932.48855     -1576.1987      4340.2464    
      4800   160.4831      -930.27533     -541.80925      4336.6182    
      4810   141.32653     -929.66603      553.79702      4332.5247    
      4820   225.2751      -931.86937      1352.4362      4328.9658    
      4830   216.53392     -931.47482      2199.0483      4326.7214    
      4840   204.45463     -931.03109      2357.5865      4326.4999    
      4850   241.63075     -931.97586      1623.0083      4328.4121    
      4860   196.39404     -930.65823      813.76811      4331.8318    
      4870   156.07517     -929.4972      -85.457169      4335.9858    
      4880   206.91989     -930.85951     -1148.3768      4340.0145    
      4890   222.38363     -931.23202     -1696.7191      4342.9838    
      4900   212.39993     -930.9165      -1789.4622      4344.3766    
      4910   231.05091     -931.41315     -1734.7474      4344.0887    
      4920   225.03184     -931.2425      -1334.4686      4342.2073    
      4930   205.84289     -930.71958     -709.46637      4339.1134    
      4940   209.2869      -930.83095     -53.020192      4335.3869    
      4950   193.03272     -930.39371      852.0909       4331.6742    
      4960   201.96888     -930.65293      1607.3757      4328.7855    
      4970   226.08497     -931.34034      1897.14        4327.3901    
      4980   190.68162     -930.38296      1943.5117      4327.7694    
      4990   182.13691     -930.16743      1428.7197      4329.9229    
      5000   233.45382     -931.61593      309.32231      4333.3497    
      5010   210.71856     -931.01894     -522.24341      4337.0749    
      5020   163.67792     -929.74061     -941.74408      4340.326     
      5030   219.30392     -931.3091      -1501.095       4342.6559    
      5040   248.59376     -932.16336     -1720.936       4343.5912    
      5050   205.41321     -931.02631     -1399.579       4342.9543    
      5060   206.9998      -931.13803     -1134.3758      4341.0032    
      5070   216.69979     -931.48623     -781.40206      4338.0144    
      5080   177.78038     -930.47964      12.643475      4334.362     
      5090   168.20641     -930.2661       864.12342      4330.7609    
      5100   195.90117     -931.07743      1506.4048      4327.9853    
      5110   197.69125     -931.16589      1940.6424      4326.6307    
      5120   195.29975     -931.13703      1920.0057      4327.0681    
      5130   202.44123     -931.37264      1442.3802      4329.2659    
      5140   204.25531     -931.46044      699.38858      4332.7844    
      5150   210.76424     -931.67889     -271.03297      4336.9233    
      5160   221.03023     -932.00795     -1274.8339      4340.783     
      5170   197.93012     -931.41499     -1893.948       4343.4576    
      5180   172.2009      -930.74037     -2138.8971      4344.3662    
      5190   178.78554     -930.95221     -2067.2341      4343.2831    
      5200   180.8466      -931.02907     -1497.9074      4340.3084    
      5210   168.62492     -930.69601     -491.81329      4335.9911    
      5220   180.42737     -931.01519      651.83951      4331.2621    
      5230   198.2462      -931.48791      1800.2676      4327.1887    
      5240   208.379       -931.74423      2573.8505      4324.8061    
      5250   216.32319     -931.94809      2583.8827      4324.7874    
      5260   204.09711     -931.60292      1969.9592      4327.1388    
      5270   186.48675     -931.11072      968.44941      4331.2939    
      5280   195.3621      -931.34819     -308.80043      4336.3128    
      5290   190.34986     -931.19071     -1459.1738      4341.0286    
      5300   188.05308     -931.10303     -2235.1762      4344.3777    
      5310   201.2952      -931.4435      -2473.5905      4345.647     
      5320   187.96969     -931.04457     -2057.4558      4344.6369    
      5330   194.97946     -931.20763     -1352.68        4341.7248    
      5340   223.99653     -931.97477     -563.55292      4337.5737    
      5350   187.20769     -930.91309      448.43546      4332.9539    
      5360   169.30754     -930.37251      1309.9172      4328.7841    
      5370   210.33117     -931.44621      1824.8413      4325.846     
      5380   181.16866     -930.54971      2300.1774      4324.6408    
      5390   157.72929     -929.81003      2341.2005      4325.5625    
      5400   224.57978     -931.53406      1656.0101      4328.6087    
      5410   245.15749     -931.92715      755.4315       4333.1783    
      5420   213.9226      -930.91397     -252.93848      4338.429     
      5430   224.47314     -931.0941      -1451.5009      4343.3998    
      5440   233.99853     -931.2675      -2412.8719      4346.9994    
      5450   223.78291     -930.92963     -2820.4667      4348.3519    
      5460   214.32152     -930.64386     -2600.8979      4347.0894    
      5470   191.38384     -929.99743     -1741.1094      4343.445     
      5480   211.12299     -930.53984     -681.86735      4338.2101    
      5490   213.0462      -930.58933      569.13341      4332.4004    
      5500   177.10474     -929.58436      1949.0016      4327.1917    
      5510   217.0838      -930.68498      2827.218       4323.8098    
      5520   255.28832     -931.75152      3075.6921      4323.047     
      5530   199.43092     -930.2299       2784.6876      4325.1278    
      5540   196.05406     -930.16831      1562.3377      4329.7242    
      5550   230.17147     -931.14899     -96.327598      4335.7245    
      5560   196.74667     -930.2539      -1373.1345      4341.6396    
      5570   196.70584     -930.27997     -2363.3257      4346.2519    
      5580   241.12147     -931.55044     -2948.4644      4348.6406    
      5590   230.08231     -931.30557     -2677.6071      4348.3096    
      5600   216.83938     -931.01452     -1903.0775      4345.503     
      5610   232.14053     -931.53017     -1022.761       4340.9403    
      5620   206.85885     -930.92493      81.229637      4335.4829    
      5630   168.6453      -929.93537      1247.0558      4330.1628    
      5640   185.21141     -930.44477      2103.351       4326.0344    
      5650   216.68367     -931.36518      2626.331       4323.8856    
      5660   223.54548     -931.61345      2645.4671      4324.1701    
      5670   204.93518     -931.16201      2057.0783      4326.879     
      5680   187.06867     -930.7236       961.89723      4331.4568    
      5690   184.83393     -930.70321     -451.5314       4336.8833    
      5700   192.16474     -930.93537     -1777.1606      4341.8582    
      5710   180.83615     -930.63912     -2431.9711      4345.1869    
      5720   186.10794     -930.79612     -2477.8448      4346.2538    
      5730   224.12344     -931.86408     -2179.6554      4345.0079    
      5740   218.82576     -931.74074     -1352.449       4341.7723    
      5750   190.71544     -930.98674     -230.93211      4337.3281    
      5760   215.62446     -931.70419      646.23672      4332.692     
      5770   212.60129     -931.65193      1469.5984      4328.7084    
      5780   166.78821     -930.40564      2211.5955      4326.1389    
      5790   193.25967     -931.15977      2270.8487      4325.6033    
      5800   215.5167      -931.79812      1858.0979      4327.16      
      5810   192.66974     -931.18643      1209.2624      4330.4302    
      5820   213.56565     -931.79217      92.446592      4334.7697    
      5830   199.98031     -931.44284     -1052.8501      4339.1651    
      5840   146.342       -929.96844     -1864.455       4342.5703    
      5850   177.70357     -930.84077     -2452.3186      4344.2111    
      5860   200.36875     -931.46104     -2342.4487      4343.5916    
      5870   161.73922     -930.37285     -1414.1876      4340.8516    
      5880   195.87164     -931.29489     -401.33116      4336.8193    
      5890   225.79482     -932.08249      660.6591       4332.4638    
      5900   184.95278     -930.90551      1743.9452      4328.7844    
      5910   201.66959     -931.32713      2242.5534      4326.7284    
      5920   243.62195     -932.44122      2166.0499      4326.7454    
      5930   216.87469     -931.66035      1783.9052      4328.7694    
      5940   196.09572     -931.05902      898.71604      4332.405     
      5950   201.42105     -931.17727     -314.27546      4336.8258    
      5960   195.73732     -930.9795      -1375.5158      4340.9291    
      5970   192.98297     -930.85497     -2112.7777      4343.7315    
      5980   183.60535     -930.53614     -2425.0307      4344.5577    
      5990   171.75614     -930.13729     -2150.5794      4343.1477    
      6000   178.44342     -930.23322     -1222.1008      4339.7914    
      6010   192.96701     -930.51903      169.4118       4335.3747    
      6020   237.4431      -931.61458      1363.2996      4331.1593    
      6030   262.96865     -932.19112      2053.948       4328.2357    
      6040   221.24707     -930.95207      2256.4249      4327.2331    
      6050   188.01847     -929.98553      1903.2347      4328.3095    
      6060   217.98926     -930.7821       1054.0431      4331.1128    
      6070   216.32602     -930.7048       203.13677      4334.8768    
      6080   195.39262     -930.10218     -562.0509       4338.8016    
      6090   229.21869     -931.02496     -1345.4272      4342.1551    
      6100   249.78247     -931.5955      -1810.7765      4344.2383    
      6110   215.64952     -930.67321     -1821.246       4344.6395    
      6120   191.02924     -930.02101     -1604.8365      4343.349     
      6130   208.62708     -930.54075     -1201.4967      4340.5896    
      6140   213.56535     -930.7118      -381.96466      4336.7845    
      6150   199.70264     -930.36174      719.8026       4332.7074    
      6160   201.23532     -930.43538      1636.0095      4329.3542    
      6170   229.9434      -931.27047      1968.3584      4327.5329    
      6180   228.13053     -931.27767      1843.3535      4327.5417    
      6190   190.30776     -930.28996      1489.7112      4329.2573    
      6200   193.69337     -930.43817      836.36344      4332.3179    
      6210   220.7239      -931.24383     -17.768315      4336.1045    
      6220   209.93095     -931.00357     -793.69936      4339.8334    
      6230   201.15072     -930.81504     -1479.7735      4342.7776    
      6240   227.01219     -931.59412     -2033.1496      4344.3038    
      6250   209.45025     -931.17622     -2036.9918      4343.9519    
      6260   178.75885     -930.38239     -1537.2894      4341.7435    
      6270   196.26253     -930.91423     -768.69864      4338.1593    
      6280   207.92485     -931.2772       290.27821      4333.9499    
      6290   199.82416     -931.08533      1389.6884      4330.0975    
      6300   206.74661     -931.30726      2045.8753      4327.5776    
      6310   212.13637     -931.48938      2117.6641      4326.9643    
      6320   196.81543     -931.09765      1716.0375      4328.3       
      6330   190.9077      -930.96141      902.93591      4331.1811    
      6340   204.037       -931.34792     -115.73         4334.8405    
      6350   191.0531      -931.00445     -935.38939      4338.3491    
      6360   162.09357     -930.20593     -1395.3888      4340.9558    
      6370   183.38955     -930.79072     -1620.7976      4342.2315    
      6380   218.96225     -931.7656      -1525.7192      4341.9976    
      6390   209.77842     -931.5038      -1043.7019      4340.381     
      6400   206.02549     -931.4004      -408.31426      4337.8405    
      6410   215.79089     -931.67751      229.92714      4334.9775    
      6420   194.31479     -931.08929      796.69165      4332.3901    
      6430   196.93635     -931.16956      1084.988       4330.5802    
      6440   203.75455     -931.3668       1196.3938      4329.8087    
      6450   166.96333     -930.34811      1156.8832      4330.1608    
      6460   180.74285     -930.72449      729.61629      4331.5524    
      6470   217.92645     -931.74149      233.84636      4333.593     
      6480   194.29646     -931.06974     -52.834256      4335.8346    
      6490   198.91521     -931.18472     -474.18221      4337.9722    
      6500   226.19068     -931.92943     -919.20711      4339.6249    
      6510   198.85946     -931.16506     -1059.7206      4340.4176    
      6520   185.25202     -930.78512     -1070.351       4340.2185    
      6530   193.31075     -931.00188     -924.47619      4339.0431    
      6540   184.48918     -930.74199     -532.45074      4337.0595    
      6550   200.01973     -931.15196     -37.340927      4334.6372    
      6560   196.64111     -931.02854      675.02893      4332.2616    
      6570   185.76544     -930.69032      1319.1467      4330.5713    
      6580   234.29927     -931.99332      1396.413       4330.1018    
      6590   223.82438     -931.65707      1202.8565      4330.9274    
      6600   178.0343      -930.35072      715.74984      4332.8358    
      6610   214.44707     -931.3196      -165.34463      4335.335     
      6620   209.55624     -931.12455     -719.36341      4337.6579    
      6630   161.67225     -929.73507     -864.19071      4339.2983    
      6640   204.97115     -930.86077     -1034.084       4340.093     
      6650   234.14319     -931.55781     -856.8608       4339.9413    
      6660   211.61895     -930.8264      -397.51324      4339.0267    
      6670   229.28839     -931.22317     -199.35558      4337.7452    
      6680   225.48575     -931.03096     -37.758018      4336.3136    
      6690   203.65489     -930.3579       238.1097       4334.8982    
      6700   218.89727     -930.72433      481.0717       4333.7393    
      6710   210.42279     -930.43763      767.09113      4333.0678    
      6720   212.40643     -930.45284      766.19906      4333.1075    
      6730   222.16258     -930.6924       442.07246      4333.8367    
      6740   186.36777     -929.67439      177.01665      4334.9745    
      6750   203.8979      -930.13916     -174.98962      4336.2471    
      6760   233.52269     -930.93995     -424.25228      4337.3405    
      6770   194.41728     -929.84176     -292.0948       4338.0541    
      6780   219.83505     -930.54161     -213.85414      4338.4798    
      6790   286.13217     -932.39694     -307.60889      4338.6866    
      6800   240.56875     -931.19382     -196.94929      4338.6304    
      6810   195.12453     -930.00786     -149.82374      4338.3935    
      6820   220.15501     -930.78505     -328.54465      4338.0078    
      6830   225.32736     -931.02746     -397.73492      4337.3408    
      6840   212.33788     -930.77293     -245.47101      4336.3424    
      6850   199.76961     -930.52469      55.225201      4335.1559    
      6860   188.33416     -930.28902      328.3336       4334.0512    
      6870   193.55487     -930.49959      431.36868      4333.2669    
      6880   181.70115     -930.21806      505.04375      4332.9055    
      6890   189.36234     -930.4606       504.96287      4333.0212    
      6900   232.19335     -931.67847      410.68393      4333.6009    
      6910   219.0707      -931.35114      414.85192      4334.5681    
      6920   198.42047     -930.81283      217.18427      4335.8925    
      6930   233.94979     -931.83845     -312.04627      4337.3679    
      6940   214.87405     -931.35621     -585.36348      4338.5534    
      6950   184.4091      -930.55061     -702.40409      4339.1885    
      6960   211.59652     -931.34213     -903.44349      4339.1495    
      6970   194.79366     -930.91036     -718.09732      4338.3075    
      6980   175.68907     -930.40318     -253.13169      4336.8416    
      6990   229.53973     -931.92011      67.511843      4335.158     
      7000   225.41249     -931.83918      485.68602      4333.5869    
      7010   177.04281     -930.53025      805.6052       4332.4992    
      7020   199.56847     -931.18546      596.69403      4332.1401    
      7030   187.90322     -930.88717      417.4661       4332.3539    
      7040   148.33458     -929.7991       399.7398       4332.9739    
      7050   193.51736     -931.05103      140.82042      4333.9363    
      7060   222.567       -931.84678      17.466145      4335.0314    
      7070   193.3128      -931.02842      87.381813      4336.1499    
      7080   214.85084     -931.62535     -202.61083      4337.3041    
      7090   225.94874     -931.9395      -538.93426      4338.2532    
      7100   188.84981     -930.92302     -640.36907      4338.7116    
      7110   195.61003     -931.12481     -819.64102      4338.5594    
      7120   203.19946     -931.34892     -772.33172      4337.6667    
      7130   173.39246     -930.53078     -226.84768      4336.1149    
      7140   182.07022     -930.77172      332.52401      4334.381     
      7150   223.77365     -931.92296      648.49589      4332.9683    
      7160   222.82263     -931.89707      903.87041      4332.1871    
      7170   203.81672     -931.38387      868.30095      4332.2432    
      7180   185.15151     -930.88343      514.55905      4333.0885    
      7190   175.37845     -930.62269      117.33089      4334.406     
      7200   194.1802      -931.14716     -278.69687      4335.8201    
      7210   199.02329     -931.27889     -590.22402      4336.9664    
      7220   173.15452     -930.5532      -670.40581      4337.5705    
      7230   176.47093     -930.6273      -640.92569      4337.553     
      7240   208.22074     -931.47542     -524.86643      4336.9454    
      7250   195.23821     -931.071       -72.136798      4335.8906    
      7260   191.54943     -930.92023      388.04068      4334.7878    
      7270   240.68558     -932.22446      539.58239      4334.0404    
      7280   242.42372     -932.21694      660.09886      4333.8125    
      7290   185.92374     -930.61324      700.99928      4334.2092    
      7300   211.59299     -931.29616      153.08753      4335.21      
      7310   224.53292     -931.62077     -371.31583      4336.3522    
      7320   163.03078     -929.8835      -433.68408      4337.1821    
      7330   177.70832     -930.2563      -563.1165       4337.5927    
      7340   228.83257     -931.61825     -633.79567      4337.4794    
      7350   195.27373     -930.62651     -270.47255      4336.8194    
      7360   189.48925     -930.41381     -8.4716115      4335.9081    
      7370   222.56807     -931.2702       44.779808      4334.9849    
      7380   192.76321     -930.38042      269.8914       4334.1359    
      7390   182.52376     -930.04041      502.47542      4333.5535    
      7400   221.82053     -931.06508      637.19012      4333.4435    
      7410   230.31711     -931.23342      714.31233      4333.9358    
      7420   236.12494     -931.34748      465.15115      4335.0713    
      7430   228.83048     -931.11921      50.185222      4336.6274    
      7440   208.14262     -930.5356      -323.67778      4338.2295    
      7450   217.8565      -930.80583     -686.72917      4339.5203    
      7460   211.24179     -930.63091     -836.43498      4340.1799    
      7470   201.81904     -930.38236     -794.59595      4340.0718    
      7480   245.65514     -931.62663     -769.20222      4339.2183    
      7490   218.38955     -930.91983     -389.79289      4337.6878    
      7500   166.76931     -929.5337       95.701067      4335.8195    
      7510   208.65554     -930.74075      239.24018      4334.0286    
      7520   220.93586     -931.13813      451.10009      4332.4883    
      7530   177.10169     -929.97751      850.96269      4331.4057    
      7540   194.17275     -930.50423      1037.6656      4331.1124    
      7550   205.50214     -930.87545      1085.0932      4331.7896    
      7560   209.26032     -931.04118      842.232        4333.463     
      7570   247.08183     -932.17675      180.01203      4335.8865    
      7580   224.01463     -931.65036     -444.80701      4338.4787    
      7590   190.03838     -930.81327     -1008.1576      4340.6509    
      7600   210.79165     -931.49154     -1563.901       4341.8653    
      7610   191.22622     -931.04364     -1608.9189      4341.6505    
      7620   166.83186     -930.43103     -1201.1167      4339.965     
      7630   197.31452     -931.32433     -636.33435      4337.174     
      7640   197.79852     -931.37334      233.43416      4333.8344    
      7650   184.20049     -931.01778      1097.4004      4330.7392    
      7660   199.90452     -931.46775      1537.599       4328.6582    
      7670   195.66504     -931.35961      1691.6204      4328.0123    
      7680   189.55087     -931.19649      1525.1301      4328.9338    
      7690   202.17382     -931.55137      947.85068      4331.2513    
      7700   195.72273     -931.37411      206.19507      4334.443     
      7710   188.56325     -931.17318     -606.69674      4337.8174    
      7720   197.54342     -931.41601     -1407.1888      4340.6134    
      7730   184.88361     -931.05388     -1775.0466      4342.116     
      7740   177.49256     -930.83406     -1631.3108      4341.9868    
      7750   195.3519      -931.30797     -1162.3414      4340.3518    
      7760   208.67165     -931.65128     -455.52706      4337.6537    
      7770   194.78736     -931.23951      398.13782      4334.5589    
      7780   202.13359     -931.41757      983.18592      4331.8337    
      7790   216.19868     -931.78303      1218.4343      4330.019     
      7800   184.72945     -930.88885      1289.1633      4329.3479    
      7810   168.87414     -930.42587      1100.0647      4329.8717    
      7820   209.39988     -931.51772      727.0852       4331.4137    
      7830   201.76357     -931.26476      515.21854      4333.6573    
      7840   188.08027     -930.84696      66.606783      4336.3664    
      7850   235.9226      -932.13461     -796.69245      4339.1001    
      7860   213.76558     -931.48501     -1314.5919      4341.1161    
      7870   155.43474     -929.84076     -1482.705       4341.924     
      7880   191.999       -930.82432     -1578.5467      4341.338     
      7890   210.03666     -931.27589     -1103.0138      4339.3194    
      7900   177.26698     -930.31661     -136.78657      4336.3152    
      7910   201.48819     -930.93489      671.64071      4333.1803    
      7920   232.72124     -931.73508      1267.175       4330.6746    
      7930   226.06698     -931.49506      1598.7472      4329.3507    
      7940   212.16486     -931.07361      1540.1688      4329.5026    
      7950   186.88542     -930.34428      1244.3283      4331.0888    
      7960   201.8127      -930.72908      599.97158      4333.8191    
      7970   241.6739      -931.80344     -290.74042      4337.0946    
      7980   202.67155     -930.69864     -930.17772      4340.1251    
      7990   182.29428     -930.11751     -1504.3963      4342.2861    
      8000   221.60704     -931.19096     -1954.575       4343.0362    
      8010   188.22145     -930.24526     -1603.1512      4342.0166    
      8020   181.04647     -930.02614     -857.03189      4339.523     
      8030   249.48946     -931.89662     -140.81804      4336.2236    
      8040   223.49254     -931.1502       949.80381      4332.8404    
      8050   190.6666      -930.22791      1798.8181      4330.3426    
      8060   241.34386     -931.63052      1761.691       4329.4663    
      8070   230.03781     -931.33024      1347.7915      4330.2241    
      8080   186.77254     -930.15928      755.35425      4332.2416    
      8090   208.44072     -930.79982     -81.325072      4334.9514    
      8100   194.98563     -930.47285     -669.44981      4337.6141    
      8110   168.15165     -929.77004     -1012.0333      4339.672     
      8120   202.0691      -930.75397     -1262.2759      4340.785     
      8130   218.23987     -931.25655     -1096.8223      4340.7483    
      8140   215.2621      -931.24178     -657.25185      4339.7067    
      8150   235.94437     -931.90835     -347.82574      4338.0377    
      8160   214.30323     -931.41986      43.778046      4336.0578    
      8170   196.55112     -931.03345      406.33082      4334.1237    
      8180   207.42869     -931.43977      602.99641      4332.5626    
      8190   187.48645     -930.97972      843.58665      4331.5803    
      8200   176.14498     -930.73491      925.06714      4331.384     
      8210   197.97188     -931.39955      614.08351      4332.0281    
      8220   187.94448     -931.17118      264.48209      4333.2545    
      8230   172.78649     -930.78444      18.192067      4334.7463    
      8240   196.40593     -931.46431     -301.03636      4336.2547    
      8250   204.33305     -931.70484     -596.30716      4337.4892    
      8260   186.19258     -931.21955     -749.45614      4338.181     
      8270   177.43079     -930.98718     -777.6242       4338.182     
      8280   186.57854     -931.24251     -652.43582      4337.467     
      8290   199.29619     -931.59018     -318.6292       4336.1592    
      8300   198.62887     -931.56399      117.16755      4334.5634    
      8310   188.5233      -931.27345      544.52219      4333.0812    
      8320   195.98245     -931.46649      895.30104      4332.1091    
      8330   214.90506     -931.97532      1031.1571      4331.9676    
      8340   224.36062     -932.22888      751.57358      4332.7675    
      8350   195.01845     -931.41532      220.89162      4334.2637    
      8360   159.47872     -930.42577     -369.11759      4335.9729    
      8370   172.55962     -930.77204     -872.24954      4337.349     
      8380   192.76511     -931.2988      -979.63975      4337.9426    
      8390   169.74362     -930.61394     -658.79693      4337.6562    
      8400   190.23804     -931.12778     -401.47562      4336.7442    
      8410   219.41371     -931.8644      -113.89851      4335.4591    
      8420   178.70395     -930.66138      415.4501       4334.0937    
      8430   185.97661     -930.79555      653.67402      4333.0962    
      8440   235.76079     -932.09349      584.0271       4332.6898    
      8450   202.26876     -931.08699      701.05728      4332.8592    
      8460   191.25455     -930.72435      637.08208      4333.6789    
      8470   234.63731     -931.87166      270.8853       4335.0811    
      8480   217.89151     -931.36019     -66.124895      4336.7556    
      8490   190.03103     -930.55747     -510.16049      4338.3709    
      8500   208.43849     -931.04261     -1026.7549      4339.5072    
      8510   203.94385     -930.89283     -1097.5276      4339.7225    
      8520   194.85587     -930.62114     -791.6398       4338.938     
      8530   195.47458     -930.61866     -395.45446      4337.4153    
      8540   206.15667     -930.89417      7.2924511      4335.5209    
      8550   218.64171     -931.22392      415.84086      4333.6336    
      8560   191.67514     -930.46429      823.82679      4332.1392    
      8570   181.27354     -930.16344      999.26916      4331.4023    
      8580   222.43583     -931.29152      868.29853      4331.582     
      8590   213.31638     -931.02833      754.06455      4332.5909    
      8600   195.81696     -930.5398       479.44534      4334.3087    
      8610   235.99978     -931.65964     -141.06732      4336.4614    
      8620   220.90128     -931.25831     -627.53982      4338.5112    
      8630   179.375       -930.1277      -868.25896      4340.005     
      8640   198.87506     -930.68764     -1014.9926      4340.696     
      8650   224.68872     -931.42426     -969.1059       4340.4529    
      8660   237.08011     -931.80576     -729.73535      4339.3137    
      8670   220.1698      -931.39547     -279.15073      4337.5048    
      8680   182.23934     -930.40146      164.35257      4335.4308    
      8690   192.82968     -930.74679      350.93919      4333.4851    
      8700   204.25757     -931.1173       580.15442      4331.8711    
      8710   171.98748     -930.26584      931.38815      4330.8149    
      8720   185.95613     -930.68785      958.3578       4330.606     
      8730   208.00672     -931.33292      844.93526      4331.2933    
      8740   188.27223     -930.81538      758.14921      4332.7922    
      8750   213.84128     -931.55603      269.33235      4334.9859    
      8760   233.18235     -932.13794     -483.80429      4337.4308    
      8770   179.07838     -930.68437     -996.97943      4339.4636    
      8780   175.42338     -930.62149     -1352.8964      4340.581     
      8790   195.84514     -931.22245     -1338.778       4340.4603    
      8800   184.75495     -930.94412     -839.17502      4339.1186    
      8810   203.11346     -931.48152     -204.70054      4336.9906    
      8820   233.60179     -932.36756      423.02097      4334.6622    
      8830   222.92634     -932.13602      947.35714      4332.7206    
      8840   208.59        -931.8323       1010.5484      4331.6281    
      8850   182.12021     -931.21368      713.0926       4331.4593    
      8860   151.61806     -930.48246      313.03883      4331.9595    
      8870   149.24112     -930.52285     -29.04625       4332.7672    
      8880   157.10847     -930.84203     -146.85727      4333.5761    
      8890   170.65201     -931.30914     -96.903237      4334.2711    
      8900   191.44931     -931.97487     -106.94609      4334.8778    
      8910   186.55036     -931.91767     -127.29306      4335.3938    
      8920   190.01059     -932.07931     -161.56352      4335.7972    
      8930   194.22275     -932.25152     -179.50759      4336.0584    
      8940   181.75221     -931.94635     -207.73042      4336.157     
      8950   186.94711     -932.11754     -294.88633      4336.0601    
      8960   194.2347      -932.33855     -315.21139      4335.6946    
      8970   165.72307     -931.55379     -176.41157      4335.049     
      8980   167.81293     -931.60601     -135.64523      4334.227     
      8990   182.6134      -931.99942     -59.579519      4333.2772    
      9000   147.50429     -930.99675      312.55927      4332.2961    
      9010   151.16289     -931.06224      604.20002      4331.5984    
      9020   199.73132     -932.3568       661.14967      4331.4494    
      9030   194.10358     -932.14143      649.89371      4331.9258    
      9040   168.05614     -931.36934      396.2568       4333.0056    
      9050   179.60304     -931.63983     -109.7934       4334.4526    
      9060   188.05373     -931.81646     -505.67019      4335.8249    
      9070   176.71554     -931.44409     -656.53642      4336.7567    
      9080   165.98987     -931.089       -583.36532      4337.0992    
      9090   179.78387     -931.40865     -394.28721      4336.9072    
      9100   209.21056     -932.15385     -235.26059      4336.3424    
      9110   207.80015     -932.04763     -71.055548      4335.5564    
      9120   183.05562     -931.30684      123.20925      4334.7058    
      9130   187.3843      -931.37737      179.95566      4333.9567    
      9140   188.43764     -931.35263      217.9749       4333.3742    
      9150   167.35243     -930.71207      380.37303      4333.0103    
      9160   196.37261     -931.45803      373.36729      4332.9911    
      9170   217.64018     -931.98021      311.67444      4333.3257    
      9180   178.10446     -930.8246       374.86231      4333.9781    
      9190   181.05183     -930.85497      154.04435      4334.9724    
      9200   220.73683     -931.89542     -287.83162      4336.1087    
      9210   201.77048     -931.3114      -433.30247      4337.0189    
      9220   179.16735     -930.63849     -428.02981      4337.5468    
      9230   197.72635     -931.10582     -523.37029      4337.6699    
      9240   205.24048     -931.26207     -503.06444      4337.3146    
      9250   190.57984     -930.80697     -282.64481      4336.5025    
      9260   197.33297     -930.94824     -83.596006      4335.4161    
      9270   214.11107     -931.36629      128.5249       4334.2448    
      9280   202.19557     -930.99318      485.97392      4333.2015    
      9290   185.82392     -930.50188      769.86219      4332.6054    
      9300   205.24711     -931.00259      775.92339      4332.7125    
      9310   227.38358     -931.57873      616.96306      4333.5483    
      9320   212.32139     -931.13364      374.52217      4334.9798    
      9330   213.10937     -931.14051     -99.479759      4336.7704    
      9340   218.37785     -931.2793      -665.5464       4338.489     
      9350   199.68062     -930.76019     -1099.104       4339.6155    
      9360   183.94401     -930.32417     -1184.3223      4339.7475    
      9370   186.40338     -930.38759     -847.40494      4338.7975    
      9380   198.92413     -930.72272     -310.90365      4337.053     
      9390   221.35931     -931.33213      197.86401      4334.9938    
      9400   216.23656     -931.18386      696.67065      4333.1028    
      9410   204.02763     -930.84717      998.35911      4331.8375    
      9420   222.66        -931.37579      967.14024      4331.4769    
      9430   207.78194     -930.9846       891.37124      4332.0324    
      9440   184.74683     -930.36983      606.49716      4333.429     
      9450   203.57315     -930.91769     -30.895027      4335.3938    
      9460   198.02085     -930.78946     -510.5364       4337.3794    
      9470   197.95399     -930.81462     -785.07475      4338.9328    
      9480   228.4139      -931.69993     -1047.5403      4339.7668    
      9490   199.22238     -930.94441     -981.00098      4339.6532    
      9500   182.41779     -930.53236     -656.77412      4338.6335    
      9510   227.93622     -931.86467     -293.89803      4336.9816    
      9520   215.07677     -931.59992      231.74246      4335.0499    
      9530   185.00164     -930.8582       567.00095      4333.3004    
      9540   193.9095      -931.1984       566.30172      4332.0383    
      9550   172.76732     -930.69595      667.90542      4331.3104    
      9560   163.04986     -930.48599      805.89319      4331.2135    
      9570   215.62003     -932.00237      649.14958      4331.8554    
      9580   215.68949     -932.06967      481.51748      4333.1303    
      9590   183.15559     -931.22482      224.62613      4334.8823    
      9600   195.5704      -931.61903     -377.54127      4336.85      
      9610   191.15577     -931.53812     -925.38836      4338.5031    
      9620   169.33162     -930.9611      -1171.0399      4339.335     
      9630   170.44498     -931.00574     -1185.5898      4339.09      
      9640   188.83599     -931.51842     -917.86381      4337.7415    
      9650   188.19685     -931.49456     -260.3589       4335.5385    
      9660   178.39542     -931.20918      498.16088      4333.0669    
      9670   193.23127     -931.59965      1012.2234      4331.013     
      9680   219.06515     -932.29298      1223.0378      4329.865     
      9690   197.80474     -931.68499      1271.1676      4329.8511    
      9700   177.77594     -931.11418      1049.4375      4331.0247    
      9710   203.66174     -931.81345      502.36016      4333.1912    
      9720   206.90376     -931.88084     -156.72729      4335.87      
      9730   180.61695     -931.13035     -824.77768      4338.453     
      9740   174.42155     -930.93335     -1441.6378      4340.3055    
      9750   179.07937     -931.02781     -1729.9497      4340.8508    
      9760   173.85741     -930.84022     -1482.203       4339.8078    
      9770   158.28568     -930.35797     -731.6383       4337.3846    
      9780   180.13412     -930.90302      141.38014      4334.2392    
      9790   228.95647     -932.18219      934.58472      4331.1732    
      9800   220.20326     -931.87475      1679.8488      4328.9459    
      9810   187.05534     -930.91469      2022.9834      4328.2458    
      9820   216.86036     -931.71397      1582.135       4329.3874    
      9830   225.82783     -931.94428      804.06335      4332.0291    
      9840   186.97424     -930.85767      18.011879      4335.4906    
      9850   200.81085     -931.23505     -924.18592      4339.0223    
      9860   209.03728     -931.45564     -1611.4318      4341.7663    
      9870   173.0649      -930.44905     -1757.4413      4343.0778    
      9880   187.62221     -930.84239     -1701.5794      4342.7565    
      9890   214.13533     -931.5636      -1384.2023      4340.8355    
      9900   194.3452      -931.00276     -654.69663      4337.6059    
      9910   177.04812     -930.50989      236.00707      4333.7187    
      9920   187.32043     -930.77359      1065.3821      4329.9896    
      9930   193.3393      -930.91028      1802.8038      4327.2072    
      9940   204.1377      -931.17886      2157.8609      4326.0562    
      9950   205.68657     -931.19422      2046.8142      4326.8946    
      9960   208.69446     -931.25644      1465.2312      4329.6532    
      9970   218.56325     -931.51526      485.08001      4333.8231    
      9980   202.87212     -931.06904     -561.35156      4338.5321    
      9990   201.68986     -931.02714     -1522.7908      4342.8061    
     10000   223.84669     -931.63688     -2275.4307      4345.7268    
     10010   212.21869     -931.31998     -2476.3789      4346.581     
     10020   196.12223     -930.88885     -2154.1013      4345.1364    
     10030   199.14958     -930.9915      -1534.4195      4341.6434    
     10040   186.9652      -930.66852     -540.75049      4336.6715    
     10050   175.65757     -930.35885      804.73259      4331.1448    
     10060   192.99435     -930.83182      2093.5812      4326.2952    
     10070   207.85732     -931.2294       2927.2998      4323.3177    
     10080   220.64528     -931.57694      3045.4953      4323.0036    
     10090   220.62481     -931.58517      2426.9833      4325.5066    
     10100   193.46528     -930.85041      1195.2016      4330.3032    
     10110   176.85098     -930.40272     -376.93274      4336.2919    
     10120   183.90123     -930.59829     -1783.0014      4342.0438    
     10130   193.67765     -930.85891     -2639.0235      4346.2447    
     10140   200.53012     -931.0353      -2873.8491      4348.0526    
     10150   216.8316      -931.47732     -2542.8872      4347.1983    
     10160   233.51184     -931.94104     -1748.0002      4343.9512    
     10170   221.65991     -931.63033     -613.0291       4339.03      
     10180   198.80674     -931.02471      602.51364      4333.4732    
     10190   197.60062     -931.02187      1631.4757      4328.403     
     10200   205.37925     -931.2744       2384.4916      4324.79      
     10210   188.70901     -930.85456      2772.3387      4323.3556    
     10220   181.76942     -930.70589      2466.7241      4324.4638    
     10230   195.42024     -931.13023      1522.8932      4327.8688    
     10240   186.88827     -930.93636      362.79852      4332.7531    
     10250   172.6947      -930.57358     -817.35132      4338.0577    
     10260   193.02214     -931.15977     -1913.8676      4342.6732    
     10270   198.5628      -931.33326     -2509.3772      4345.5806    
     10280   183.4953      -930.93417     -2472.9052      4346.1965    
     10290   202.60671     -931.48458     -2038.7843      4344.5022    
     10300   225.57616     -932.14923     -1211.4911      4340.8864    
     10310   207.4876      -931.68449     -33.752511      4336.1151    
     10320   187.21329     -931.15781      1097.927       4331.2602    
     10330   201.84744     -931.59792      1856.3385      4327.3629    
     10340   207.79888     -931.80282      2272.9789      4325.1521    
     10350   180.25497     -931.08023      2324.4344      4325.036     
     10360   169.32971     -930.81069      1815.2868      4327.0693    
     10370   192.35458     -931.47603      812.49425      4330.8045    
     10380   189.27479     -931.40952     -261.14652      4335.3548    
     10390   166.63684     -930.78812     -1190.9452      4339.7315    
     10400   192.12068     -931.49185     -1998.065       4343.0427    
     10410   205.74425     -931.86083     -2351.4042      4344.5362    
[...]
     47810   221.74545     -931.16976      1004.3597      4331.324     
     47820   198.26604     -930.48031      350.26488      4334.9422    
     47830   211.65413     -930.81938     -530.99348      4338.8546    
     47840   234.44013     -931.42244     -1353.941       4342.257     
     47850   218.21557     -930.95826     -1820.1744      4344.4016    
     47860   201.8057      -930.50225     -1974.894       4344.8489    
     47870   215.25028     -930.88289     -1787.3018      4343.4642    
     47880   213.17599     -930.84004     -1050.8905      4340.4588    
     47890   210.25957     -930.78045     -36.246559      4336.5155    
     47900   220.20915     -931.08572      872.6769       4332.5638    
     47910   212.77678     -930.91837      1539.9866      4329.4463    
     47920   205.06917     -930.75193      1837.2255      4327.7679    
     47930   205.89719     -930.83025      1770.8778      4327.7959    
     47940   201.52404     -930.77009      1359.8862      4329.4591    
     47950   198.35775     -930.74526      597.68945      4332.3625    
     47960   200.34092     -930.86345     -252.78789      4335.808     
     47970   196.21213     -930.81026     -884.53506      4339.0215    
     47980   199.12333     -930.95035     -1338.4051      4341.4041    
     47990   207.43837     -931.24364     -1606.4507      4342.5326    
     48000   203.11061     -931.18909     -1522.8702      4342.1769    
     48010   201.08637     -931.19875     -1125.0299      4340.4214    
     48020   202.59127     -931.30492     -500.6431       4337.6441    
     48030   198.91295     -931.26264      239.54561      4334.4323    
     48040   198.30734     -931.29983      866.17094      4331.4635    
     48050   188.17292     -931.06425      1330.0845      4329.3197    
     48060   182.96889     -930.95339      1567.969       4328.4232    
     48070   204.69604     -931.58458      1421.6032      4328.9731    
     48080   209.73591     -931.75344      987.11326      4330.8331    
     48090   187.07471     -931.14974      419.22888      4333.604     
     48100   195.04813     -931.38908     -321.76763      4336.7433    
     48110   204.60593     -931.66823     -1042.6857      4339.5696    
     48120   177.57141     -930.92564     -1477.1683      4341.4301    
     48130   179.86092     -930.98954     -1700.3666      4341.9099    
     48140   198.13995     -931.49122     -1570.2042      4340.8194    
     48150   179.57594     -930.96543     -910.99765      4338.3096    
     48160   180.1169      -930.96433     -62.398685      4334.9806    
     48170   206.6717      -931.67766      711.12618      4331.6142    
     48180   201.29563     -931.50412      1424.9776      4328.9393    
     48190   187.41059     -931.09843      1861.8504      4327.5997    
     48200   196.27614     -931.32537      1774.5558      4327.972     
     48210   194.91066     -931.26732      1287.655       4329.9771    
     48220   197.08533     -931.30805      528.4946       4333.1615    
     48230   204.9988      -931.50737     -343.56156      4336.8214    
     48240   203.01576     -931.43296     -1115.9832      4340.1541    
     48250   205.89172     -931.49755     -1696.7066      4342.4396    
     48260   196.95526     -931.23819     -1931.6405      4343.1484    
     48270   182.92291     -930.83863     -1729.1876      4342.0747    
     48280   181.92422     -930.79634     -1121.0185      4339.4182    
     48290   187.55814     -930.92975     -210.08638      4335.7547    
     48300   190.16268     -930.97054      812.68062      4331.9343    
     48310   204.84881     -931.34244      1573.2234      4328.8845    
     48320   213.19525     -931.5407       1916.3503      4327.2988    
     48330   202.16001     -931.21017      1887.856       4327.4918    
     48340   192.3485      -930.91929      1469.9275      4329.4256    
     48350   202.45052     -931.18087      629.9721       4332.6968    
     48360   205.49887     -931.24543     -344.05833      4336.5378    
     48370   187.63537     -930.72895     -1109.509       4340.0606    
     48380   198.58522     -931.01037     -1629.522       4342.5466    
     48390   226.84424     -931.77367     -1860.8982      4343.5125    
     48400   205.63918     -931.17491     -1635.8809      4342.7643    
     48410   180.13856     -930.46183     -1129.4838      4340.5092    
     48420   206.11534     -931.17472     -536.69121      4337.2151    
     48430   202.62378     -931.06569      363.7573       4333.4709    
     48440   180.96192     -930.44999      1300.7665      4330.1016    
     48450   208.51838     -931.19728      1783.2216      4327.9372    
     48460   218.58156     -931.45978      1919.0494      4327.4337    
     48470   203.59562     -931.03642      1717.6814      4328.7091    
     48480   215.93267     -931.3796       1028.3839      4331.5516    
     48490   211.95951     -931.27562      118.18961      4335.3349    
     48500   190.97759     -930.70217     -820.77701      4339.2164    
     48510   190.39463     -930.69226     -1665.6116      4342.3197    
     48520   192.87387     -930.76353     -2078.5615      4343.8799    
     48530   195.79093     -930.84547     -1958.9542      4343.5225    
     48540   207.04789     -931.16027     -1494.9251      4341.3531    
     48550   196.8545      -930.88041     -670.38634      4337.8251    
     48560   190.04333     -930.69168      364.44641      4333.7118    
     48570   205.17432     -931.10647      1321.9829      4329.964     
     48580   216.19136     -931.40668      2030.3791      4327.4631    
     48590   223.50126     -931.61558      2263.1354      4326.844     
     48600   222.8128      -931.62243      1898.781       4328.3036    
     48610   205.42635     -931.18181      1081.6945      4331.5053    
     48620   199.47521     -931.06511      2.5561751      4335.693     
     48630   191.23739     -930.88505     -1085.0063      4339.8712    
     48640   176.39172     -930.51316     -1938.3426      4343.0349    
     48650   188.7865      -930.89245     -2359.1786      4344.3963    
     48660   193.62393     -931.0612      -2116.6496      4343.5869    
     48670   184.52361     -930.83981     -1359.6676      4340.8343    
     48680   195.47113     -931.16944     -405.29344      4336.8383    
     48690   209.10846     -931.57212      607.34319      4332.495     
     48700   196.79983     -931.2542       1549.6956      4328.7481    
     48710   196.47662     -931.26888      2084.4218      4326.445     
     48720   202.63021     -931.46619      2129.5641      4326.0695    
     48730   191.86982     -931.19542      1789.2214      4327.6642    
     48740   192.34921     -931.23468      1051.3927      4330.9007    
     48750   207.92467     -931.69098      35.295803      4335.0938    
     48760   211.22742     -931.80942     -980.26714      4339.3104    
     48770   190.84983     -931.27208     -1738.3379      4342.6155    
     48780   174.29797     -930.83539     -2139.8204      4344.3026    
     48790   180.49289     -931.02189     -2123.2301      4344.003     
     48800   200.05534     -931.57479     -1641.5231      4341.7455    
     48810   197.10418     -931.50037     -717.94133      4337.9966    
     48820   184.57476     -931.15511      321.43373      4333.608     
     48830   189.61978     -931.28996      1177.6705      4329.5346    
     48840   185.60553     -931.16507      1828.7191      4326.5755    
     48850   175.09367     -930.85244      2169.3949      4325.3231    
     48860   187.74052     -931.17426      2019.9644      4326.0699    
     48870   201.12275     -931.50635      1452.2183      4328.6761    
     48880   201.03149     -931.45942      636.99266      4332.6201    
     48890   201.75473     -931.43164     -313.88443      4337.1442    
     48900   212.5682      -931.6804      -1300.2844      4341.3606    
     48910   210.50207     -931.57285     -2075.3136      4344.36      
     48920   191.98006     -931.01505     -2378.2314      4345.4348    
     48930   187.85187     -930.8588      -2144.2573      4344.3098    
     48940   198.39671     -931.1042      -1438.01        4341.2114    
     48950   196.47729     -930.99674     -361.82558      4336.8101    
     48960   190.10925     -930.76049      818.23093      4332.1068    
     48970   214.94865     -931.38393      1700.1902      4328.1746    
     48980   217.3167      -931.38344      2257.74        4325.8343    
     48990   192.80718     -930.6503       2400.6157      4325.5907    
     49000   200.76541     -930.82557      1874.8481      4327.5449    
     49010   210.72538     -931.05465      871.59982      4331.2153    
     49020   186.08608     -930.32462     -153.36479      4335.6992    
     49030   192.2925      -930.44963     -1133.1088      4340.0334    
     49040   212.34115     -930.95121     -1856.3938      4343.3127    
     49050   205.22704     -930.7028      -2069.2073      4344.8784    
     49060   206.86925     -930.70696     -1829.8586      4344.528     
     49070   232.13717     -931.37453     -1277.4898      4342.4838    
     49080   240.17613     -931.57997     -494.90746      4339.2702    
     49090   227.29893     -931.22731      337.44664      4335.617     
     49100   216.2163      -930.94006      979.03247      4332.288     
     49110   208.62421     -930.75754      1342.1325      4329.8761    
     49120   204.22786     -930.66934      1445.5208      4328.7168    
     49130   188.04852     -930.25322      1379.2007      4328.9094    
     49140   189.12333     -930.31092      1069.2323      4330.3797    
     49150   205.64681     -930.79523      538.33814      4332.8362    
     49160   206.809       -930.85419     -95.787908      4335.7896    
     49170   208.7308      -930.93792     -759.11766      4338.6486    
     49180   209.88341     -931.00655     -1273.1326      4340.8029    
     49190   194.62685     -930.62265     -1460.3172      4341.7849    
     49200   198.81961     -930.77949     -1372.2198      4341.4143    
     49210   212.16327     -931.19674     -968.14851      4339.7829    
     49220   205.5077      -931.06564     -263.3251       4337.2774    
     49230   212.31008     -931.31653      424.70489      4334.5368    
     49240   219.01337     -931.58059      946.54722      4332.1975    
     49250   205.24443     -931.29012      1256.8493      4330.7446    
     49260   204.92856     -931.38272      1224.6556      4330.4533    
     49270   206.45879     -931.53886      895.50889      4331.2935    
     49280   185.24386     -931.05941      436.98325      4332.9692    
     49290   175.16585     -930.86848     -132.95467      4335.0479    
     49300   181.06342     -931.10137     -699.26547      4337.0023    
     49310   179.60247     -931.11031     -1033.7772      4338.3192    
     49320   178.52514     -931.11097     -1084.6587      4338.688     
     49330   182.45484     -931.23544     -891.90179      4338.059     
     49340   189.25627     -931.4285      -477.31563      4336.6152    
     49350   199.64801     -931.71616      76.681425      4334.7427    
     49360   195.4281      -931.59564      615.71723      4332.9524    
     49370   197.15679     -931.63949      891.3945       4331.7281    
     49380   203.41669     -931.80949      911.00153      4331.3289    
     49390   195.74003     -931.59361      746.22683      4331.7777    
     49400   186.09531     -931.32157      392.97556      4332.9168    
     49410   184.34809     -931.26297     -47.811589      4334.4221    
     49420   184.9083      -931.26119     -390.93609      4335.894     
     49430   180.78358     -931.12169     -538.8464       4337.0182    
     49440   187.72028     -931.2819      -603.07047      4337.6453    
     49450   199.64245     -931.57344     -621.81716      4337.7128    
     49460   201.45501     -931.58279     -528.5907       4337.209     
     49470   183.24032     -931.03657     -256.83428      4336.2298    
     49480   185.50182     -931.05545      22.594492      4335.0156    
     49490   209.2944      -931.66359      235.09704      4333.8233    
     49500   198.75239     -931.31713      493.16264      4332.8644    
     49510   181.99143     -930.80236      664.29634      4332.3694    
     49520   203.55266     -931.34781      566.23479      4332.4809    
     49530   201.61568     -931.23635      419.07843      4333.1279    
     49540   177.6228      -930.51701      267.02221      4334.1753    
     49550   190.47737     -930.81756     -43.122563      4335.4653    
     49560   218.72635     -931.53622     -377.06655      4336.7176    
     49570   212.05852     -931.29064     -460.43187      4337.6434    
     49580   205.71979     -931.0674      -438.79163      4338.15      
     49590   218.35525     -931.3782      -512.62088      4338.2404    
     49600   212.19989     -931.17627     -558.31991      4337.856     
     49610   194.14985     -930.65236     -406.45633      4336.969     
     49620   203.74973     -930.89778     -144.14784      4335.7129    
     49630   212.55412     -931.12188      192.67725      4334.3328    
     49640   192.33511     -930.54363      557.29876      4333.1431    
     49650   192.26578     -930.5245       736.74649      4332.4674    
     49660   214.70967     -931.128        714.4438       4332.4731    
     49670   208.05204     -930.92656      618.89549      4333.1528    
     49680   201.94301     -930.74618      334.5634       4334.4063    
     49690   207.15165     -930.8825      -111.61404      4335.9682    
     49700   193.49876     -930.49493     -448.55282      4337.444     
     49710   204.86556     -930.80148     -665.96418      4338.5136    
     49720   229.64306     -931.48383     -704.20522      4338.9771    
     49730   219.73097     -931.21657     -560.52774      4338.7994    
     49740   209.82308     -930.963       -434.64241      4338.0963    
     49750   212.21985     -931.0621      -268.05971      4336.9913    
     49760   199.29265     -930.74317      38.285656      4335.6515    
     49770   203.60619     -930.90953      246.0016       4334.342     
     49780   210.45617     -931.15848      381.89297      4333.2619    
     49790   191.64841     -930.70356      560.23475      4332.5504    
     49800   189.39675     -930.70978      595.74409      4332.3578    
     49810   205.08396     -931.22321      491.42062      4332.7193    
     49820   194.46488     -931.01333      393.30401      4333.5528    
     49830   194.24848     -931.09207      140.67525      4334.7516    
     49840   208.86314     -931.58931     -237.19203      4336.0816    
     49850   198.70258     -931.40141     -491.17893      4337.2094    
     49860   187.54697     -931.17606     -611.16519      4337.8943    
     49870   192.10516     -931.3769      -661.3858       4338.0147    
     49880   184.97455     -931.2411      -584.80253      4337.5279    
     49890   182.95368     -931.23167     -443.57267      4336.4982    
     49900   196.7435      -931.65182     -238.91547      4335.056     
     49910   187.17272     -931.41485      191.70756      4333.4092    
     49920   176.97561     -931.14807      633.11176      4331.9444    
     49930   198.47747     -931.7532       809.06069      4331.0519    
     49940   198.76689     -931.76557      884.7914       4330.9169    
     49950   183.48716     -931.34285      825.68526      4331.6103    
     49960   191.67276     -931.56706      483.55004      4333.0656    
     49970   188.81805     -931.47867      38.84272       4334.9825    
     49980   179.01533     -931.19119     -432.15539      4336.95      
     49990   199.16281     -931.72941     -934.78827      4338.5202    
     50000   201.76299     -931.77774     -1136.4893      4339.2466    
Loop time of 9.32662 on 1 procs for 50000 steps with 216 atoms

Performance: 463.190 ns/day, 0.052 hours/ns, 5361.000 timesteps/s, 1.158 Matom-step/s
98.9% CPU use with 1 MPI tasks x 1 OpenMP threads

MPI task timing breakdown:
Section |  min time  |  avg time  |  max time  |%varavg| %total
---------------------------------------------------------------
Pair    | 8.7731     | 8.7731     | 8.7731     |   0.0 | 94.07
Neigh   | 0          | 0          | 0          |   0.0 |  0.00
Comm    | 0.14187    | 0.14187    | 0.14187    |   0.0 |  1.52
Output  | 0.043157   | 0.043157   | 0.043157   |   0.0 |  0.46
Modify  | 0.33347    | 0.33347    | 0.33347    |   0.0 |  3.58
Other   |            | 0.03501    |            |       |  0.38

Nlocal:            216 ave         216 max         216 min
Histogram: 1 0 0 0 0 0 0 0 0 0
Nghost:            950 ave         950 max         950 min
Histogram: 1 0 0 0 0 0 0 0 0 0
Neighs:              0 ave           0 max           0 min
Histogram: 1 0 0 0 0 0 0 0 0 0
FullNghs:         7344 ave        7344 max        7344 min
Histogram: 1 0 0 0 0 0 0 0 0 0

Total # of neighbors = 7344
Ave neighs/atom = 34
Neighbor list builds = 0
Dangerous builds = 0


min_style cg
minimize 1e-10 1e-10 5000 10000
Per MPI rank memory allocation (min/avg/max) = 5.612 | 5.612 | 5.612 Mbytes
   Step          Temp          PotEng         Press          Volume    
     50000   201.76299     -931.77774     -1136.4893      4339.2466    
     50010   201.76299     -936.68454     -1927.8293      4339.2466    
     50020   201.76299     -936.69091     -1927.5695      4339.2466    
     50026   201.76299     -936.69091     -1927.5692      4339.2466    
Loop time of 0.00654444 on 1 procs for 26 steps with 216 atoms

99.5% CPU use with 1 MPI tasks x 1 OpenMP threads

Minimization stats:
  Stopping criterion = energy tolerance
  Energy initial, next-to-last, final = 
     -931.777742466802  -936.690913475494  -936.690913520336
  Force two-norm initial, final = 12.955919 0.00074257205
  Force max component initial, final = 1.5378844 0.0001103922
  Final line search alpha, max atom move = 1 0.0001103922
  Iterations, force evaluations = 26 52

MPI task timing breakdown:
Section |  min time  |  avg time  |  max time  |%varavg| %total
---------------------------------------------------------------
Pair    | 0.0059671  | 0.0059671  | 0.0059671  |   0.0 | 91.18
Neigh   | 0          | 0          | 0          |   0.0 |  0.00
Comm    | 0.00014655 | 0.00014655 | 0.00014655 |   0.0 |  2.24
Output  | 1.2624e-05 | 1.2624e-05 | 1.2624e-05 |   0.0 |  0.19
Modify  | 0          | 0          | 0          |   0.0 |  0.00
Other   |            | 0.0004182  |            |       |  6.39

Nlocal:            216 ave         216 max         216 min
Histogram: 1 0 0 0 0 0 0 0 0 0
Nghost:            950 ave         950 max         950 min
Histogram: 1 0 0 0 0 0 0 0 0 0
Neighs:              0 ave           0 max           0 min
Histogram: 1 0 0 0 0 0 0 0 0 0
FullNghs:         7362 ave        7362 max        7362 min
Histogram: 1 0 0 0 0 0 0 0 0 0

Total # of neighbors = 7362
Ave neighs/atom = 34.083333
Neighbor list builds = 0
Dangerous builds = 0
variable teng equal "c_eatoms"
variable natoms equal "count(all)"
variable ecoh equal "v_teng/v_natoms"
variable lengthx equal lx/${xdim}
variable lengthx equal lx/3
variable lengthy equal ly/${ydim}
variable lengthy equal ly/3
variable lengthz equal lz/${zdim}
variable lengthz equal lz/3

print "cohesive energy: ${ecoh}"
cohesive energy: -4.33653200703859
print "x_length equals: ${lengthx}"
x_length equals: 5.43688553455317
print "y_length equals: ${lengthy}"
y_length equals: 5.43688553455317
print "z_length equals: ${lengthz}"
z_length equals: 5.43688553455317

variable lp_x equal ${lengthx}
variable lp_x equal 5.43688553455317
variable lp_y equal ${lengthy}
variable lp_y equal 5.43688553455317
variable lp_z equal ${lengthz}
variable lp_z equal 5.43688553455317

variable lp_avg equal "(v_lp_x + v_lp_y + v_lp_z) / 3"

print "lattice parameter equals ${lp_avg}"
lattice parameter equals 5.43688553455317
Total wall time: 0:00:09
