LAMMPS data file via write_data, version 27 Jun 2024, timestep = 1, units = metal

64 atoms
1 atom types

0 10.86 xlo xhi
0 10.86 ylo yhi
0 10.86 zlo zhi

Masses

1 28.02

Atoms # atomic

1 1 0.000000 0.000000 0.000000
2 1 5.430000 0.000000 0.000000
3 1 2.715000 2.715000 0.000000
4 1 8.145000 2.715000 0.000000
5 1 0.000000 5.430000 0.000000
6 1 5.430000 5.430000 0.000000
7 1 2.715000 8.145000 0.000000
8 1 8.145000 8.145000 0.000000
9 1 1.357500 1.357500 1.357500
10 1 6.787500 1.357500 1.357500
11 1 4.072500 4.072500 1.357500
12 1 9.502500 4.072500 1.357500
13 1 1.357500 6.787500 1.357500
14 1 6.787500 6.787500 1.357500
15 1 4.072500 9.502500 1.357500
16 1 9.502500 9.502500 1.357500
17 1 2.715000 0.000000 2.715000
18 1 8.145000 0.000000 2.715000
19 1 0.000000 2.715000 2.715000
20 1 5.430000 2.715000 2.715000
21 1 2.715000 5.430000 2.715000
22 1 8.145000 5.430000 2.715000
23 1 0.000000 8.145000 2.715000
24 1 5.430000 8.145000 2.715000
25 1 4.072500 1.357500 4.072500
26 1 9.502500 1.357500 4.072500
27 1 1.357500 4.072500 4.072500
28 1 6.787500 4.072500 4.072500
29 1 4.072500 6.787500 4.072500
30 1 9.502500 6.787500 4.072500
31 1 1.357500 9.502500 4.072500
32 1 6.787500 9.502500 4.072500
33 1 0.000000 0.000000 5.430000
34 1 5.430000 0.000000 5.430000
35 1 2.715000 2.715000 5.430000
36 1 8.145000 2.715000 5.430000
37 1 0.000000 5.430000 5.430000
38 1 5.430000 5.430000 5.430000
39 1 2.715000 8.145000 5.430000
40 1 8.145000 8.145000 5.430000
41 1 1.357500 1.357500 6.787500
42 1 6.787500 1.357500 6.787500
43 1 4.072500 4.072500 6.787500
44 1 9.502500 4.072500 6.787500
45 1 1.357500 6.787500 6.787500
46 1 6.787500 6.787500 6.787500
47 1 4.072500 9.502500 6.787500
48 1 9.502500 9.502500 6.787500
49 1 2.715000 0.000000 8.145000
50 1 8.145000 0.000000 8.145000
51 1 0.000000 2.715000 8.145000
52 1 5.430000 2.715000 8.145000
53 1 2.715000 5.430000 8.145000
54 1 8.145000 5.430000 8.145000
55 1 0.000000 8.145000 8.145000
56 1 5.430000 8.145000 8.145000
57 1 4.072500 1.357500 9.502500
58 1 9.502500 1.357500 9.502500
59 1 1.357500 4.072500 9.502500
60 1 6.787500 4.072500 9.502500
61 1 4.072500 6.787500 9.502500
62 1 9.502500 6.787500 9.502500
63 1 1.357500 9.502500 9.502500
64 1 6.787500 9.502500 9.502500
