LAMMPS data file via write_data, version 27 Jun 2024, timestep = 1, units = metal

216 atoms
1 atom types

0 16.29 xlo xhi
0 16.29 ylo yhi
0 16.29 zlo zhi

Masses

1 28.02

Atoms # atomic

1 1 0.000000 0.000000 0.000000
2 1 5.430000 0.000000 0.000000
3 1 10.860000 0.000000 0.000000
4 1 2.715000 2.715000 0.000000
5 1 8.145000 2.715000 0.000000
6 1 13.575000 2.715000 0.000000
7 1 0.000000 5.430000 0.000000
8 1 5.430000 5.430000 0.000000
9 1 10.860000 5.430000 0.000000
10 1 2.715000 8.145000 0.000000
11 1 8.145000 8.145000 0.000000
12 1 13.575000 8.145000 0.000000
13 1 0.000000 10.860000 0.000000
14 1 5.430000 10.860000 0.000000
15 1 10.860000 10.860000 0.000000
16 1 2.715000 13.575000 0.000000
17 1 8.145000 13.575000 0.000000
18 1 13.575000 13.575000 0.000000
19 1 1.357500 1.357500 1.357500
20 1 6.787500 1.357500 1.357500
21 1 12.217500 1.357500 1.357500
22 1 4.072500 4.072500 1.357500
23 1 9.502500 4.072500 1.357500
24 1 14.932500 4.072500 1.357500
25 1 1.357500 6.787500 1.357500
26 1 6.787500 6.787500 1.357500
27 1 12.217500 6.787500 1.357500
28 1 4.072500 9.502500 1.357500
29 1 9.502500 9.502500 1.357500
30 1 14.932500 9.502500 1.357500
31 1 1.357500 12.217500 1.357500
32 1 6.787500 12.217500 1.357500
33 1 12.217500 12.217500 1.357500
34 1 4.072500 14.932500 1.357500
35 1 9.502500 14.932500 1.357500
36 1 14.932500 14.932500 1.357500
37 1 2.715000 0.000000 2.715000
38 1 8.145000 0.000000 2.715000
39 1 13.575000 0.000000 2.715000
40 1 0.000000 2.715000 2.715000
41 1 5.430000 2.715000 2.715000
42 1 10.860000 2.715000 2.715000
43 1 2.715000 5.430000 2.715000
44 1 8.145000 5.430000 2.715000
45 1 13.575000 5.430000 2.715000
46 1 0.000000 8.145000 2.715000
47 1 5.430000 8.145000 2.715000
48 1 10.860000 8.145000 2.715000
49 1 2.715000 10.860000 2.715000
50 1 8.145000 10.860000 2.715000
51 1 13.575000 10.860000 2.715000
52 1 0.000000 13.575000 2.715000
53 1 5.430000 13.575000 2.715000
54 1 10.860000 13.575000 2.715000
55 1 4.072500 1.357500 4.072500
56 1 9.502500 1.357500 4.072500
57 1 14.932500 1.357500 4.072500
58 1 1.357500 4.072500 4.072500
59 1 6.787500 4.072500 4.072500
60 1 12.217500 4.072500 4.072500
61 1 4.072500 6.787500 4.072500
62 1 9.502500 6.787500 4.072500
63 1 14.932500 6.787500 4.072500
64 1 1.357500 9.502500 4.072500
65 1 6.787500 9.502500 4.072500
66 1 12.217500 9.502500 4.072500
67 1 4.072500 12.217500 4.072500
68 1 9.502500 12.217500 4.072500
69 1 14.932500 12.217500 4.072500
70 1 1.357500 14.932500 4.072500
71 1 6.787500 14.932500 4.072500
72 1 12.217500 14.932500 4.072500
73 1 0.000000 0.000000 5.430000
74 1 5.430000 0.000000 5.430000
75 1 10.860000 0.000000 5.430000
76 1 2.715000 2.715000 5.430000
77 1 8.145000 2.715000 5.430000
78 1 13.575000 2.715000 5.430000
79 1 0.000000 5.430000 5.430000
80 1 5.430000 5.430000 5.430000
81 1 10.860000 5.430000 5.430000
82 1 2.715000 8.145000 5.430000
83 1 8.145000 8.145000 5.430000
84 1 13.575000 8.145000 5.430000
85 1 0.000000 10.860000 5.430000
86 1 5.430000 10.860000 5.430000
87 1 10.860000 10.860000 5.430000
88 1 2.715000 13.575000 5.430000
89 1 8.145000 13.575000 5.430000
90 1 13.575000 13.575000 5.430000
91 1 1.357500 1.357500 6.787500
92 1 6.787500 1.357500 6.787500
93 1 12.217500 1.357500 6.787500
94 1 4.072500 4.072500 6.787500
95 1 9.502500 4.072500 6.787500
96 1 14.932500 4.072500 6.787500
97 1 1.357500 6.787500 6.787500
98 1 6.787500 6.787500 6.787500
99 1 12.217500 6.787500 6.787500
100 1 4.072500 9.502500 6.787500
101 1 9.502500 9.502500 6.787500
102 1 14.932500 9.502500 6.787500
103 1 1.357500 12.217500 6.787500
104 1 6.787500 12.217500 6.787500
105 1 12.217500 12.217500 6.787500
106 1 4.072500 14.932500 6.787500
107 1 9.502500 14.932500 6.787500
108 1 14.932500 14.932500 6.787500
109 1 2.715000 0.000000 8.145000
110 1 8.145000 0.000000 8.145000
111 1 13.575000 0.000000 8.145000
112 1 0.000000 2.715000 8.145000
113 1 5.430000 2.715000 8.145000
114 1 10.860000 2.715000 8.145000
115 1 2.715000 5.430000 8.145000
116 1 8.145000 5.430000 8.145000
117 1 13.575000 5.430000 8.145000
118 1 0.000000 8.145000 8.145000
119 1 5.430000 8.145000 8.145000
120 1 10.860000 8.145000 8.145000
121 1 2.715000 10.860000 8.145000
122 1 8.145000 10.860000 8.145000
123 1 13.575000 10.860000 8.145000
124 1 0.000000 13.575000 8.145000
125 1 5.430000 13.575000 8.145000
126 1 10.860000 13.575000 8.145000
127 1 4.072500 1.357500 9.502500
128 1 9.502500 1.357500 9.502500
129 1 14.932500 1.357500 9.502500
130 1 1.357500 4.072500 9.502500
131 1 6.787500 4.072500 9.502500
132 1 12.217500 4.072500 9.502500
133 1 4.072500 6.787500 9.502500
134 1 9.502500 6.787500 9.502500
135 1 14.932500 6.787500 9.502500
136 1 1.357500 9.502500 9.502500
137 1 6.787500 9.502500 9.502500
138 1 12.217500 9.502500 9.502500
139 1 4.072500 12.217500 9.502500
140 1 9.502500 12.217500 9.502500
141 1 14.932500 12.217500 9.502500
142 1 1.357500 14.932500 9.502500
143 1 6.787500 14.932500 9.502500
144 1 12.217500 14.932500 9.502500
145 1 0.000000 0.000000 10.860000
146 1 5.430000 0.000000 10.860000
147 1 10.860000 0.000000 10.860000
148 1 2.715000 2.715000 10.860000
149 1 8.145000 2.715000 10.860000
150 1 13.575000 2.715000 10.860000
151 1 0.000000 5.430000 10.860000
152 1 5.430000 5.430000 10.860000
153 1 10.860000 5.430000 10.860000
154 1 2.715000 8.145000 10.860000
155 1 8.145000 8.145000 10.860000
156 1 13.575000 8.145000 10.860000
157 1 0.000000 10.860000 10.860000
158 1 5.430000 10.860000 10.860000
159 1 10.860000 10.860000 10.860000
160 1 2.715000 13.575000 10.860000
161 1 8.145000 13.575000 10.860000
162 1 13.575000 13.575000 10.860000
163 1 1.357500 1.357500 12.217500
164 1 6.787500 1.357500 12.217500
165 1 12.217500 1.357500 12.217500
166 1 4.072500 4.072500 12.217500
167 1 9.502500 4.072500 12.217500
168 1 14.932500 4.072500 12.217500
169 1 1.357500 6.787500 12.217500
170 1 6.787500 6.787500 12.217500
171 1 12.217500 6.787500 12.217500
172 1 4.072500 9.502500 12.217500
173 1 9.502500 9.502500 12.217500
174 1 14.932500 9.502500 12.217500
175 1 1.357500 12.217500 12.217500
176 1 6.787500 12.217500 12.217500
177 1 12.217500 12.217500 12.217500
178 1 4.072500 14.932500 12.217500
179 1 9.502500 14.932500 12.217500
180 1 14.932500 14.932500 12.217500
181 1 2.715000 0.000000 13.575000
182 1 8.145000 0.000000 13.575000
183 1 13.575000 0.000000 13.575000
184 1 0.000000 2.715000 13.575000
185 1 5.430000 2.715000 13.575000
186 1 10.860000 2.715000 13.575000
187 1 2.715000 5.430000 13.575000
188 1 8.145000 5.430000 13.575000
189 1 13.575000 5.430000 13.575000
190 1 0.000000 8.145000 13.575000
191 1 5.430000 8.145000 13.575000
192 1 10.860000 8.145000 13.575000
193 1 2.715000 10.860000 13.575000
194 1 8.145000 10.860000 13.575000
195 1 13.575000 10.860000 13.575000
196 1 0.000000 13.575000 13.575000
197 1 5.430000 13.575000 13.575000
198 1 10.860000 13.575000 13.575000
199 1 4.072500 1.357500 14.932500
200 1 9.502500 1.357500 14.932500
201 1 14.932500 1.357500 14.932500
202 1 1.357500 4.072500 14.932500
203 1 6.787500 4.072500 14.932500
204 1 12.217500 4.072500 14.932500
205 1 4.072500 6.787500 14.932500
206 1 9.502500 6.787500 14.932500
207 1 14.932500 6.787500 14.932500
208 1 1.357500 9.502500 14.932500
209 1 6.787500 9.502500 14.932500
210 1 12.217500 9.502500 14.932500
211 1 4.072500 12.217500 14.932500
212 1 9.502500 12.217500 14.932500
213 1 14.932500 12.217500 14.932500
214 1 1.357500 14.932500 14.932500
215 1 6.787500 14.932500 14.932500
216 1 12.217500 14.932500 14.932500
