LAMMPS data file via write_data, version 27 Jun 2024, timestep = 1, units = metal

64 atoms
1 atom types

0 8 xlo xhi
0 8 ylo yhi
0 8 zlo zhi

Masses

1 28

Atoms # atomic

1 1 0.000000 0.000000 0.000000
2 1 4.000000 0.000000 0.000000
3 1 2.000000 2.000000 0.000000
4 1 6.000000 2.000000 0.000000
5 1 0.000000 4.000000 0.000000
6 1 4.000000 4.000000 0.000000
7 1 2.000000 6.000000 0.000000
8 1 6.000000 6.000000 0.000000
9 1 1.000000 1.000000 1.000000
10 1 5.000000 1.000000 1.000000
11 1 3.000000 3.000000 1.000000
12 1 7.000000 3.000000 1.000000
13 1 1.000000 5.000000 1.000000
14 1 5.000000 5.000000 1.000000
15 1 3.000000 7.000000 1.000000
16 1 7.000000 7.000000 1.000000
17 1 2.000000 0.000000 2.000000
18 1 6.000000 0.000000 2.000000
19 1 0.000000 2.000000 2.000000
20 1 4.000000 2.000000 2.000000
21 1 2.000000 4.000000 2.000000
22 1 6.000000 4.000000 2.000000
23 1 0.000000 6.000000 2.000000
24 1 4.000000 6.000000 2.000000
25 1 3.000000 1.000000 3.000000
26 1 7.000000 1.000000 3.000000
27 1 1.000000 3.000000 3.000000
28 1 5.000000 3.000000 3.000000
29 1 3.000000 5.000000 3.000000
30 1 7.000000 5.000000 3.000000
31 1 1.000000 7.000000 3.000000
32 1 5.000000 7.000000 3.000000
33 1 0.000000 0.000000 4.000000
34 1 4.000000 0.000000 4.000000
35 1 2.000000 2.000000 4.000000
36 1 6.000000 2.000000 4.000000
37 1 0.000000 4.000000 4.000000
38 1 4.000000 4.000000 4.000000
39 1 2.000000 6.000000 4.000000
40 1 6.000000 6.000000 4.000000
41 1 1.000000 1.000000 5.000000
42 1 5.000000 1.000000 5.000000
43 1 3.000000 3.000000 5.000000
44 1 7.000000 3.000000 5.000000
45 1 1.000000 5.000000 5.000000
46 1 5.000000 5.000000 5.000000
47 1 3.000000 7.000000 5.000000
48 1 7.000000 7.000000 5.000000
49 1 2.000000 0.000000 6.000000
50 1 6.000000 0.000000 6.000000
51 1 0.000000 2.000000 6.000000
52 1 4.000000 2.000000 6.000000
53 1 2.000000 4.000000 6.000000
54 1 6.000000 4.000000 6.000000
55 1 0.000000 6.000000 6.000000
56 1 4.000000 6.000000 6.000000
57 1 3.000000 1.000000 7.000000
58 1 7.000000 1.000000 7.000000
59 1 1.000000 3.000000 7.000000
60 1 5.000000 3.000000 7.000000
61 1 3.000000 5.000000 7.000000
62 1 7.000000 5.000000 7.000000
63 1 1.000000 7.000000 7.000000
64 1 5.000000 7.000000 7.000000
