ITEM: TIMESTEP
0
ITEM: NUMBER OF ATOMS
216
ITEM: BOX BOUNDS pp pp pp
0.0000000000000000e+00 1.6289999999999999e+01
0.0000000000000000e+00 1.6289999999999999e+01
0.0000000000000000e+00 1.6289999999999999e+01
ITEM: ATOMS mass type xs ys zs
28.02 1 0 0 0
28.02 1 0.333333 0 0
28.02 1 0.666667 0 0
28.02 1 0.166667 0.166667 0
28.02 1 0.5 0.166667 0
28.02 1 0.833333 0.166667 0
28.02 1 0 0.333333 0
28.02 1 0.333333 0.333333 0
28.02 1 0.666667 0.333333 0
28.02 1 0.166667 0.5 0
28.02 1 0.5 0.5 0
28.02 1 0.833333 0.5 0
28.02 1 0 0.666667 0
28.02 1 0.333333 0.666667 0
28.02 1 0.666667 0.666667 0
28.02 1 0.166667 0.833333 0
28.02 1 0.5 0.833333 0
28.02 1 0.833333 0.833333 0
28.02 1 0.0833333 0.0833333 0.0833333
28.02 1 0.416667 0.0833333 0.0833333
28.02 1 0.75 0.0833333 0.0833333
28.02 1 0.25 0.25 0.0833333
28.02 1 0.583333 0.25 0.0833333
28.02 1 0.916667 0.25 0.0833333
28.02 1 0.0833333 0.416667 0.0833333
28.02 1 0.416667 0.416667 0.0833333
28.02 1 0.75 0.416667 0.0833333
28.02 1 0.25 0.583333 0.0833333
28.02 1 0.583333 0.583333 0.0833333
28.02 1 0.916667 0.583333 0.0833333
28.02 1 0.0833333 0.75 0.0833333
28.02 1 0.416667 0.75 0.0833333
28.02 1 0.75 0.75 0.0833333
28.02 1 0.25 0.916667 0.0833333
28.02 1 0.583333 0.916667 0.0833333
28.02 1 0.916667 0.916667 0.0833333
28.02 1 0.166667 0 0.166667
28.02 1 0.5 0 0.166667
28.02 1 0.833333 0 0.166667
28.02 1 0 0.166667 0.166667
28.02 1 0.333333 0.166667 0.166667
28.02 1 0.666667 0.166667 0.166667
28.02 1 0.166667 0.333333 0.166667
28.02 1 0.5 0.333333 0.166667
28.02 1 0.833333 0.333333 0.166667
28.02 1 0 0.5 0.166667
28.02 1 0.333333 0.5 0.166667
28.02 1 0.666667 0.5 0.166667
28.02 1 0.166667 0.666667 0.166667
28.02 1 0.5 0.666667 0.166667
28.02 1 0.833333 0.666667 0.166667
28.02 1 0 0.833333 0.166667
28.02 1 0.333333 0.833333 0.166667
28.02 1 0.666667 0.833333 0.166667
28.02 1 0.25 0.0833333 0.25
28.02 1 0.583333 0.0833333 0.25
28.02 1 0.916667 0.0833333 0.25
28.02 1 0.0833333 0.25 0.25
28.02 1 0.416667 0.25 0.25
28.02 1 0.75 0.25 0.25
28.02 1 0.25 0.416667 0.25
28.02 1 0.583333 0.416667 0.25
28.02 1 0.916667 0.416667 0.25
28.02 1 0.0833333 0.583333 0.25
28.02 1 0.416667 0.583333 0.25
28.02 1 0.75 0.583333 0.25
28.02 1 0.25 0.75 0.25
28.02 1 0.583333 0.75 0.25
28.02 1 0.916667 0.75 0.25
28.02 1 0.0833333 0.916667 0.25
28.02 1 0.416667 0.916667 0.25
28.02 1 0.75 0.916667 0.25
28.02 1 0 0 0.333333
28.02 1 0.333333 0 0.333333
28.02 1 0.666667 0 0.333333
28.02 1 0.166667 0.166667 0.333333
28.02 1 0.5 0.166667 0.333333
28.02 1 0.833333 0.166667 0.333333
28.02 1 0 0.333333 0.333333
28.02 1 0.333333 0.333333 0.333333
28.02 1 0.666667 0.333333 0.333333
28.02 1 0.166667 0.5 0.333333
28.02 1 0.5 0.5 0.333333
28.02 1 0.833333 0.5 0.333333
28.02 1 0 0.666667 0.333333
28.02 1 0.333333 0.666667 0.333333
28.02 1 0.666667 0.666667 0.333333
28.02 1 0.166667 0.833333 0.333333
28.02 1 0.5 0.833333 0.333333
28.02 1 0.833333 0.833333 0.333333
28.02 1 0.0833333 0.0833333 0.416667
28.02 1 0.416667 0.0833333 0.416667
28.02 1 0.75 0.0833333 0.416667
28.02 1 0.25 0.25 0.416667
28.02 1 0.583333 0.25 0.416667
28.02 1 0.916667 0.25 0.416667
28.02 1 0.0833333 0.416667 0.416667
28.02 1 0.416667 0.416667 0.416667
28.02 1 0.75 0.416667 0.416667
28.02 1 0.25 0.583333 0.416667
28.02 1 0.583333 0.583333 0.416667
28.02 1 0.916667 0.583333 0.416667
28.02 1 0.0833333 0.75 0.416667
28.02 1 0.416667 0.75 0.416667
28.02 1 0.75 0.75 0.416667
28.02 1 0.25 0.916667 0.416667
28.02 1 0.583333 0.916667 0.416667
28.02 1 0.916667 0.916667 0.416667
28.02 1 0.166667 0 0.5
28.02 1 0.5 0 0.5
28.02 1 0.833333 0 0.5
28.02 1 0 0.166667 0.5
28.02 1 0.333333 0.166667 0.5
28.02 1 0.666667 0.166667 0.5
28.02 1 0.166667 0.333333 0.5
28.02 1 0.5 0.333333 0.5
28.02 1 0.833333 0.333333 0.5
28.02 1 0 0.5 0.5
28.02 1 0.333333 0.5 0.5
28.02 1 0.666667 0.5 0.5
28.02 1 0.166667 0.666667 0.5
28.02 1 0.5 0.666667 0.5
28.02 1 0.833333 0.666667 0.5
28.02 1 0 0.833333 0.5
28.02 1 0.333333 0.833333 0.5
28.02 1 0.666667 0.833333 0.5
28.02 1 0.25 0.0833333 0.583333
28.02 1 0.583333 0.0833333 0.583333
28.02 1 0.916667 0.0833333 0.583333
28.02 1 0.0833333 0.25 0.583333
28.02 1 0.416667 0.25 0.583333
28.02 1 0.75 0.25 0.583333
28.02 1 0.25 0.416667 0.583333
28.02 1 0.583333 0.416667 0.583333
28.02 1 0.916667 0.416667 0.583333
28.02 1 0.0833333 0.583333 0.583333
28.02 1 0.416667 0.583333 0.583333
28.02 1 0.75 0.583333 0.583333
28.02 1 0.25 0.75 0.583333
28.02 1 0.583333 0.75 0.583333
28.02 1 0.916667 0.75 0.583333
28.02 1 0.0833333 0.916667 0.583333
28.02 1 0.416667 0.916667 0.583333
28.02 1 0.75 0.916667 0.583333
28.02 1 0 0 0.666667
28.02 1 0.333333 0 0.666667
28.02 1 0.666667 0 0.666667
28.02 1 0.166667 0.166667 0.666667
28.02 1 0.5 0.166667 0.666667
28.02 1 0.833333 0.166667 0.666667
28.02 1 0 0.333333 0.666667
28.02 1 0.333333 0.333333 0.666667
28.02 1 0.666667 0.333333 0.666667
28.02 1 0.166667 0.5 0.666667
28.02 1 0.5 0.5 0.666667
28.02 1 0.833333 0.5 0.666667
28.02 1 0 0.666667 0.666667
28.02 1 0.333333 0.666667 0.666667
28.02 1 0.666667 0.666667 0.666667
28.02 1 0.166667 0.833333 0.666667
28.02 1 0.5 0.833333 0.666667
28.02 1 0.833333 0.833333 0.666667
28.02 1 0.0833333 0.0833333 0.75
28.02 1 0.416667 0.0833333 0.75
28.02 1 0.75 0.0833333 0.75
28.02 1 0.25 0.25 0.75
28.02 1 0.583333 0.25 0.75
28.02 1 0.916667 0.25 0.75
28.02 1 0.0833333 0.416667 0.75
28.02 1 0.416667 0.416667 0.75
28.02 1 0.75 0.416667 0.75
28.02 1 0.25 0.583333 0.75
28.02 1 0.583333 0.583333 0.75
28.02 1 0.916667 0.583333 0.75
28.02 1 0.0833333 0.75 0.75
28.02 1 0.416667 0.75 0.75
28.02 1 0.75 0.75 0.75
28.02 1 0.25 0.916667 0.75
28.02 1 0.583333 0.916667 0.75
28.02 1 0.916667 0.916667 0.75
28.02 1 0.166667 0 0.833333
28.02 1 0.5 0 0.833333
28.02 1 0.833333 0 0.833333
28.02 1 0 0.166667 0.833333
28.02 1 0.333333 0.166667 0.833333
28.02 1 0.666667 0.166667 0.833333
28.02 1 0.166667 0.333333 0.833333
28.02 1 0.5 0.333333 0.833333
28.02 1 0.833333 0.333333 0.833333
28.02 1 0 0.5 0.833333
28.02 1 0.333333 0.5 0.833333
28.02 1 0.666667 0.5 0.833333
28.02 1 0.166667 0.666667 0.833333
28.02 1 0.5 0.666667 0.833333
28.02 1 0.833333 0.666667 0.833333
28.02 1 0 0.833333 0.833333
28.02 1 0.333333 0.833333 0.833333
28.02 1 0.666667 0.833333 0.833333
28.02 1 0.25 0.0833333 0.916667
28.02 1 0.583333 0.0833333 0.916667
28.02 1 0.916667 0.0833333 0.916667
28.02 1 0.0833333 0.25 0.916667
28.02 1 0.416667 0.25 0.916667
28.02 1 0.75 0.25 0.916667
28.02 1 0.25 0.416667 0.916667
28.02 1 0.583333 0.416667 0.916667
28.02 1 0.916667 0.416667 0.916667
28.02 1 0.0833333 0.583333 0.916667
28.02 1 0.416667 0.583333 0.916667
28.02 1 0.75 0.583333 0.916667
28.02 1 0.25 0.75 0.916667
28.02 1 0.583333 0.75 0.916667
28.02 1 0.916667 0.75 0.916667
28.02 1 0.0833333 0.916667 0.916667
28.02 1 0.416667 0.916667 0.916667
28.02 1 0.75 0.916667 0.916667
ITEM: TIMESTEP
5000
ITEM: NUMBER OF ATOMS
216
ITEM: BOX BOUNDS pp pp pp
-3.3286269515889089e-02 1.6323286269515826e+01
-3.3286269515889089e-02 1.6323286269515826e+01
-3.3286269515889089e-02 1.6323286269515826e+01
ITEM: ATOMS mass type xs ys zs
28.02 1 0.000772327 0.00109479 0.00317088
28.02 1 0.336543 0.00170082 -0.00442756
28.02 1 0.663799 0.00545468 0.00138324
28.02 1 0.165855 0.159659 0.000420356
28.02 1 0.507039 0.176539 0.00201994
28.02 1 0.825667 0.177868 -0.00682547
28.02 1 0.0011561 0.33909 0.0120151
28.02 1 0.329662 0.332211 -0.00723839
28.02 1 0.667757 0.331182 0.0140533
28.02 1 0.164085 0.503571 -0.00256546
28.02 1 0.497837 0.493072 -0.00404298
28.02 1 0.836036 0.503379 0.003687
28.02 1 -0.000238921 0.666858 -0.00232183
28.02 1 0.33774 0.66865 -0.00493226
28.02 1 0.665168 0.661209 -0.00499631
28.02 1 0.165415 0.837687 -0.00737649
28.02 1 0.498423 0.843539 -0.00358624
28.02 1 0.824114 0.838195 0.00162404
28.02 1 0.0825953 0.0819862 0.0881184
28.02 1 0.409623 0.087689 0.0832399
28.02 1 0.748764 0.0825245 0.0741213
28.02 1 0.25697 0.247034 0.0809396
28.02 1 0.579077 0.255938 0.0971617
28.02 1 0.909109 0.254522 0.0834453
28.02 1 0.0930908 0.414244 0.0912521
28.02 1 0.41441 0.421079 0.0854434
28.02 1 0.750424 0.422687 0.0823967
28.02 1 0.249244 0.584638 0.0794093
28.02 1 0.578567 0.577629 0.0758443
28.02 1 0.919916 0.58627 0.0874109
28.02 1 0.0765592 0.749988 0.0743096
28.02 1 0.421657 0.750889 0.0774913
28.02 1 0.747471 0.746344 0.0796279
28.02 1 0.253152 0.913955 0.0698123
28.02 1 0.58585 0.917364 0.0777999
28.02 1 0.911363 0.914864 0.0766813
28.02 1 0.174526 -0.00031505 0.165246
28.02 1 0.50276 0.00258947 0.170699
28.02 1 0.830803 -0.00275137 0.159578
28.02 1 -0.00307749 0.165606 0.160689
28.02 1 0.330846 0.163908 0.172706
28.02 1 0.668376 0.167769 0.169497
28.02 1 0.175148 0.323128 0.174861
28.02 1 0.49315 0.336671 0.175676
28.02 1 0.825619 0.337032 0.172885
28.02 1 0.0071197 0.49739 0.167875
28.02 1 0.329267 0.504319 0.172301
28.02 1 0.662284 0.501141 0.170383
28.02 1 0.165975 0.675138 0.165492
28.02 1 0.504907 0.664226 0.165816
28.02 1 0.835331 0.678396 0.175571
28.02 1 -0.00444474 0.831378 0.16138
28.02 1 0.334427 0.841517 0.16466
28.02 1 0.658714 0.823113 0.166068
28.02 1 0.252285 0.0780768 0.253665
28.02 1 0.579958 0.085414 0.249717
28.02 1 0.910616 0.0742744 0.241782
28.02 1 0.0754466 0.238317 0.244566
28.02 1 0.413217 0.251224 0.256177
28.02 1 0.744024 0.252699 0.253429
28.02 1 0.248878 0.420537 0.254222
28.02 1 0.581281 0.420308 0.248969
28.02 1 0.914361 0.413432 0.250915
28.02 1 0.08364 0.585816 0.248141
28.02 1 0.421939 0.586726 0.254576
28.02 1 0.748161 0.587701 0.254565
28.02 1 0.248855 0.75345 0.250452
28.02 1 0.578288 0.739993 0.252853
28.02 1 0.914211 0.755879 0.260326
28.02 1 0.0850938 0.917551 0.247849
28.02 1 0.420336 0.91604 0.247976
28.02 1 0.749398 0.912945 0.24662
28.02 1 -0.0010992 -0.00567502 0.336129
28.02 1 0.339963 -0.00580516 0.335446
28.02 1 0.658533 -0.00873926 0.332652
28.02 1 0.158725 0.16132 0.327031
28.02 1 0.502931 0.178519 0.33535
28.02 1 0.833901 0.166798 0.3251
28.02 1 -0.000471871 0.328358 0.330446
28.02 1 0.330518 0.347872 0.338735
28.02 1 0.659779 0.339501 0.339061
28.02 1 0.164107 0.503288 0.338757
28.02 1 0.506283 0.497657 0.338961
28.02 1 0.838449 0.504084 0.337886
28.02 1 0.00308941 0.66906 0.333402
28.02 1 0.331036 0.666277 0.331308
28.02 1 0.673037 0.667803 0.338201
28.02 1 0.166352 0.841489 0.328498
28.02 1 0.495546 0.82267 0.333202
28.02 1 0.829406 0.842882 0.333501
28.02 1 0.0824764 0.0783578 0.417761
28.02 1 0.421823 0.0852249 0.417739
28.02 1 0.753081 0.0788588 0.410971
28.02 1 0.245044 0.249896 0.402844
28.02 1 0.575787 0.25465 0.420856
28.02 1 0.918246 0.241197 0.410133
28.02 1 0.0821321 0.410316 0.418351
28.02 1 0.415195 0.42463 0.422952
28.02 1 0.754546 0.421672 0.416832
28.02 1 0.247388 0.591635 0.420085
28.02 1 0.593048 0.588424 0.419548
28.02 1 0.917071 0.587476 0.417253
28.02 1 0.0808227 0.753511 0.417947
28.02 1 0.41175 0.747305 0.420664
28.02 1 0.755819 0.747353 0.418709
28.02 1 0.246174 0.920462 0.419444
28.02 1 0.577659 0.90505 0.409858
28.02 1 0.910067 0.912499 0.413988
28.02 1 0.16403 -0.000856386 0.509009
28.02 1 0.506909 -0.00211054 0.503155
28.02 1 0.833653 -0.00172225 0.498883
28.02 1 0.00205477 0.159443 0.508301
28.02 1 0.327535 0.160374 0.492198
28.02 1 0.673109 0.169541 0.49325
28.02 1 0.169942 0.322843 0.498431
28.02 1 0.490303 0.337407 0.498255
28.02 1 0.842595 0.338267 0.492901
28.02 1 0.0045879 0.499024 0.493176
28.02 1 0.329149 0.503209 0.505397
28.02 1 0.671124 0.503949 0.499115
28.02 1 0.165597 0.670158 0.50534
28.02 1 0.494855 0.66122 0.49729
28.02 1 0.845346 0.670415 0.505389
28.02 1 0.00507877 0.835032 0.492535
28.02 1 0.339928 0.842373 0.508984
28.02 1 0.662972 0.822141 0.500989
28.02 1 0.250233 0.0824219 0.581428
28.02 1 0.594183 0.0840364 0.583368
28.02 1 0.915399 0.0796405 0.583849
28.02 1 0.0879179 0.245949 0.584493
28.02 1 0.411336 0.246812 0.574355
28.02 1 0.754569 0.256091 0.581326
28.02 1 0.241207 0.415003 0.579829
28.02 1 0.583319 0.410034 0.591318
28.02 1 0.928314 0.415646 0.58135
28.02 1 0.0853181 0.577414 0.584663
28.02 1 0.425273 0.58822 0.582143
28.02 1 0.757877 0.582564 0.576401
28.02 1 0.248313 0.759728 0.57563
28.02 1 0.575094 0.732039 0.583488
28.02 1 0.924663 0.754187 0.583646
28.02 1 0.0833352 0.914456 0.590656
28.02 1 0.420595 0.915646 0.593355
28.02 1 0.749101 0.918091 0.579774
28.02 1 -0.0067039 0.000557094 0.669157
28.02 1 0.333062 -0.00257131 0.673877
28.02 1 0.670514 0.000264647 0.666341
28.02 1 0.163102 0.167306 0.668918
28.02 1 0.500465 0.16485 0.657175
28.02 1 0.833534 0.163888 0.674954
28.02 1 0.000535691 0.328282 0.665647
28.02 1 0.327878 0.333463 0.664359
28.02 1 0.668768 0.333077 0.668319
28.02 1 0.162679 0.494498 0.66654
28.02 1 0.503818 0.506361 0.666526
28.02 1 0.843657 0.497711 0.659464
28.02 1 0.00123338 0.669598 0.676792
28.02 1 0.336729 0.672222 0.66127
28.02 1 0.669983 0.65691 0.665263
28.02 1 0.165379 0.825823 0.674469
28.02 1 0.49587 0.82824 0.667731
28.02 1 0.834641 0.833959 0.662388
28.02 1 0.0768398 0.0934837 0.750918
28.02 1 0.414885 0.0817674 0.742349
28.02 1 0.743692 0.0813608 0.756512
28.02 1 0.2486 0.24794 0.755371
28.02 1 0.579911 0.245851 0.743794
28.02 1 0.925825 0.246402 0.760495
28.02 1 0.0774713 0.409409 0.743314
28.02 1 0.414244 0.41701 0.748691
28.02 1 0.757742 0.414126 0.741956
28.02 1 0.25211 0.580888 0.742482
28.02 1 0.58657 0.580027 0.75327
28.02 1 0.919764 0.580052 0.745324
28.02 1 0.0779221 0.751125 0.765002
28.02 1 0.413123 0.748632 0.747295
28.02 1 0.748513 0.754065 0.73492
28.02 1 0.250913 0.914641 0.750802
28.02 1 0.579873 0.914359 0.746246
28.02 1 0.915159 0.916451 0.760218
28.02 1 0.177517 0.00711756 0.831356
28.02 1 0.50058 0.00638431 0.837289
28.02 1 0.826281 -0.000253623 0.84466
28.02 1 0.0040794 0.169058 0.847136
28.02 1 0.340702 0.173669 0.835448
28.02 1 0.663627 0.166335 0.829214
28.02 1 0.157798 0.333002 0.835509
28.02 1 0.502595 0.327317 0.827139
28.02 1 0.842708 0.336258 0.829493
28.02 1 -0.00166847 0.491316 0.831123
28.02 1 0.334564 0.496836 0.835735
28.02 1 0.680732 0.497535 0.832252
28.02 1 0.166248 0.66262 0.828067
28.02 1 0.508335 0.664116 0.839732
28.02 1 0.825416 0.662023 0.823442
28.02 1 -0.00482825 0.836016 0.837443
28.02 1 0.334238 0.83803 0.825963
28.02 1 0.669855 0.82887 0.832468
28.02 1 0.2532 0.0846395 0.910797
28.02 1 0.580179 0.083692 0.917993
28.02 1 0.918544 0.091927 0.923053
28.02 1 0.0821417 0.257555 0.93026
28.02 1 0.422656 0.259063 0.921142
28.02 1 0.750536 0.259045 0.912425
28.02 1 0.247622 0.413734 0.913688
28.02 1 0.589994 0.406626 0.910235
28.02 1 0.914836 0.412661 0.921152
28.02 1 0.0807016 0.584856 0.911036
28.02 1 0.419508 0.577681 0.919462
28.02 1 0.757544 0.578519 0.915179
28.02 1 0.251886 0.747719 0.906558
28.02 1 0.585958 0.756322 0.91705
28.02 1 0.911148 0.752565 0.917122
28.02 1 0.0828638 0.913798 0.907191
28.02 1 0.4141 0.917899 0.913178
28.02 1 0.740078 0.917619 0.924841
ITEM: TIMESTEP
10000
ITEM: NUMBER OF ATOMS
216
ITEM: BOX BOUNDS pp pp pp
-1.3191555766240981e-02 1.6303191555766084e+01
-1.3191555766240981e-02 1.6303191555766084e+01
-1.3191555766240981e-02 1.6303191555766084e+01
ITEM: ATOMS mass type xs ys zs
28.02 1 -0.00477836 0.00291278 0.0105494
28.02 1 0.343443 -0.00760955 -0.0107712
28.02 1 0.661922 0.00398789 0.00244402
28.02 1 0.169972 0.162066 0.00151022
28.02 1 0.51025 0.175031 -0.0107844
28.02 1 0.836656 0.166456 -0.004841
28.02 1 0.00227408 0.325091 0.0045414
28.02 1 0.329689 0.34201 0.00118965
28.02 1 0.67005 0.342032 0.00438778
28.02 1 0.173142 0.493003 0.00131236
28.02 1 0.50088 0.497998 -0.0074481
28.02 1 0.838485 0.497023 -0.00124426
28.02 1 0.00339667 0.673242 -0.0058824
28.02 1 0.341457 0.663638 -0.00448811
28.02 1 0.656936 0.664095 -0.000255753
28.02 1 0.164846 0.840628 -0.00778891
28.02 1 0.514315 0.817599 -0.00285693
28.02 1 0.825161 0.82912 0.00309925
28.02 1 0.0866825 0.0793116 0.0952013
28.02 1 0.423769 0.0757849 0.0792686
28.02 1 0.746728 0.0885396 0.076894
28.02 1 0.24819 0.252156 0.0792621
28.02 1 0.580726 0.255304 0.0849989
28.02 1 0.913157 0.241325 0.0896581
28.02 1 0.0836637 0.409678 0.0838131
28.02 1 0.412705 0.429402 0.0817295
28.02 1 0.75685 0.42405 0.0847859
28.02 1 0.255813 0.587111 0.0782711
28.02 1 0.573876 0.597304 0.0898019
28.02 1 0.923336 0.586418 0.0721185
28.02 1 0.08592 0.757073 0.0709263
28.02 1 0.425256 0.744455 0.0747115
28.02 1 0.744355 0.74603 0.0777557
28.02 1 0.255451 0.910508 0.0777628
28.02 1 0.579924 0.90977 0.0835492
28.02 1 0.907004 0.914529 0.0835796
28.02 1 0.176413 0.000803791 0.167948
28.02 1 0.501708 -0.0146795 0.172973
28.02 1 0.834543 0.00284359 0.165965
28.02 1 -0.00541707 0.163354 0.174565
28.02 1 0.335782 0.165488 0.164737
28.02 1 0.670329 0.170185 0.169687
28.02 1 0.161606 0.326928 0.165522
28.02 1 0.491057 0.334987 0.167099
28.02 1 0.83749 0.33834 0.171557
28.02 1 0.00236776 0.49481 0.155851
28.02 1 0.327468 0.50055 0.171791
28.02 1 0.664764 0.504577 0.174253
28.02 1 0.165451 0.669922 0.162189
28.02 1 0.489444 0.666406 0.182499
28.02 1 0.83863 0.659919 0.165333
28.02 1 -0.0033211 0.830424 0.164764
28.02 1 0.34289 0.831719 0.157829
28.02 1 0.667609 0.828145 0.169176
28.02 1 0.256834 0.0825414 0.250428
28.02 1 0.575246 0.0784213 0.252288
28.02 1 0.921442 0.0777682 0.25165
28.02 1 0.0747195 0.251916 0.242748
28.02 1 0.414587 0.246791 0.255426
28.02 1 0.760579 0.261146 0.258352
28.02 1 0.241636 0.414763 0.256755
28.02 1 0.580958 0.417885 0.254748
28.02 1 0.924259 0.410356 0.250642
28.02 1 0.0847012 0.582165 0.236256
28.02 1 0.407345 0.588877 0.262825
28.02 1 0.760331 0.581187 0.253006
28.02 1 0.251705 0.758074 0.2445
28.02 1 0.589041 0.746443 0.257873
28.02 1 0.907866 0.754452 0.249504
28.02 1 0.0918492 0.909581 0.25034
28.02 1 0.417968 0.908609 0.252463
28.02 1 0.749236 0.919022 0.247226
28.02 1 0.0145101 -0.00366291 0.329888
28.02 1 0.335169 -0.00307617 0.328639
28.02 1 0.659696 -0.0021015 0.333657
28.02 1 0.164401 0.169323 0.32541
28.02 1 0.497906 0.164362 0.338696
28.02 1 0.832622 0.15876 0.326778
28.02 1 0.000702633 0.333065 0.341738
28.02 1 0.327569 0.330543 0.336655
28.02 1 0.667245 0.335303 0.333338
28.02 1 0.155655 0.511623 0.331294
28.02 1 0.49659 0.502883 0.342694
28.02 1 0.836106 0.495535 0.326016
28.02 1 -0.00404711 0.670361 0.326515
28.02 1 0.326947 0.678922 0.340827
28.02 1 0.676057 0.662724 0.339553
28.02 1 0.172097 0.830659 0.328893
28.02 1 0.503285 0.833849 0.345616
28.02 1 0.833551 0.838174 0.332386
28.02 1 0.0849454 0.0848019 0.406327
28.02 1 0.423338 0.088657 0.419547
28.02 1 0.746663 0.0786744 0.413331
28.02 1 0.245739 0.251966 0.418101
28.02 1 0.574221 0.252688 0.417575
28.02 1 0.916574 0.240577 0.410743
28.02 1 0.0841784 0.42055 0.41893
28.02 1 0.41336 0.410275 0.418297
28.02 1 0.75178 0.41292 0.410958
28.02 1 0.243094 0.586802 0.420221
28.02 1 0.584143 0.591951 0.416356
28.02 1 0.918541 0.582478 0.4129
28.02 1 0.0819546 0.758462 0.409596
28.02 1 0.419562 0.755672 0.429653
28.02 1 0.754484 0.750015 0.422013
28.02 1 0.253917 0.913896 0.413242
28.02 1 0.586184 0.917311 0.420421
28.02 1 0.918313 0.921495 0.412251
28.02 1 0.169608 -0.00201544 0.502599
28.02 1 0.504064 0.000527727 0.507394
28.02 1 0.83179 -0.00803268 0.495523
28.02 1 -0.0026714 0.164812 0.499419
28.02 1 0.331527 0.17281 0.49574
28.02 1 0.65856 0.169203 0.488555
28.02 1 0.157036 0.331471 0.503197
28.02 1 0.500383 0.33531 0.500111
28.02 1 0.837815 0.321465 0.486554
28.02 1 -0.00431593 0.50892 0.49782
28.02 1 0.325984 0.496178 0.497421
28.02 1 0.673922 0.499587 0.493074
28.02 1 0.16785 0.673772 0.506014
28.02 1 0.492876 0.665564 0.512156
28.02 1 0.837356 0.671314 0.497017
28.02 1 -0.000674969 0.834175 0.498162
28.02 1 0.33742 0.836351 0.507404
28.02 1 0.672927 0.836031 0.503512
28.02 1 0.251304 0.0842866 0.581725
28.02 1 0.584189 0.0866436 0.582664
28.02 1 0.912976 0.0841459 0.581423
28.02 1 0.0822503 0.249004 0.589419
28.02 1 0.415786 0.248793 0.583045
28.02 1 0.746143 0.252865 0.57941
28.02 1 0.241167 0.410437 0.579034
28.02 1 0.589763 0.411746 0.573715
28.02 1 0.912712 0.415891 0.566632
28.02 1 0.0850996 0.592453 0.581771
28.02 1 0.420022 0.57189 0.580511
28.02 1 0.749799 0.583536 0.588106
28.02 1 0.251985 0.755494 0.587681
28.02 1 0.583336 0.752434 0.59049
28.02 1 0.912229 0.756165 0.584726
28.02 1 0.0736171 0.917702 0.582362
28.02 1 0.422524 0.918166 0.595238
28.02 1 0.760014 0.919725 0.589493
28.02 1 -0.00705599 -0.00147567 0.660743
28.02 1 0.332872 0.00297948 0.668782
28.02 1 0.672499 0.00488318 0.663433
28.02 1 0.173907 0.163303 0.670345
28.02 1 0.507247 0.170645 0.663802
28.02 1 0.834915 0.171933 0.663886
28.02 1 0.00441766 0.339328 0.67078
28.02 1 0.332288 0.32774 0.663194
28.02 1 0.670608 0.334679 0.668388
28.02 1 0.164165 0.498078 0.663045
28.02 1 0.500713 0.492846 0.663482
28.02 1 0.839038 0.496837 0.660309
28.02 1 -0.00510449 0.669057 0.666328
28.02 1 0.326465 0.670194 0.662645
28.02 1 0.665864 0.662143 0.674215
28.02 1 0.158608 0.846799 0.676153
28.02 1 0.502065 0.835235 0.678755
28.02 1 0.83357 0.832924 0.676139
28.02 1 0.0858182 0.0825603 0.747914
28.02 1 0.415649 0.0854317 0.755983
28.02 1 0.749824 0.0964615 0.746802
28.02 1 0.252767 0.24936 0.759683
28.02 1 0.582492 0.254098 0.74181
28.02 1 0.920349 0.252652 0.748592
28.02 1 0.0853316 0.417364 0.751994
28.02 1 0.411029 0.412488 0.746456
28.02 1 0.753667 0.41548 0.746628
28.02 1 0.248654 0.581651 0.745372
28.02 1 0.585269 0.57712 0.747377
28.02 1 0.914465 0.58093 0.752027
28.02 1 0.0713405 0.751629 0.76072
28.02 1 0.412691 0.745768 0.744782
28.02 1 0.751351 0.749592 0.749817
28.02 1 0.24821 0.922008 0.757351
28.02 1 0.587849 0.921008 0.750727
28.02 1 0.914751 0.917145 0.75292
28.02 1 0.161299 0.00302135 0.843704
28.02 1 0.496661 0.000507948 0.830181
28.02 1 0.826953 0.00772621 0.831768
28.02 1 -0.00263198 0.163675 0.828799
28.02 1 0.343169 0.175052 0.845382
28.02 1 0.669884 0.172421 0.828112
28.02 1 0.165329 0.326818 0.835592
28.02 1 0.498131 0.338235 0.827953
28.02 1 0.823978 0.327695 0.835406
28.02 1 0.0060848 0.49836 0.838364
28.02 1 0.334584 0.49342 0.831681
28.02 1 0.666473 0.496669 0.834047
28.02 1 0.16931 0.67276 0.83393
28.02 1 0.488636 0.651839 0.822886
28.02 1 0.831736 0.664506 0.835381
28.02 1 -0.00818302 0.839532 0.839252
28.02 1 0.329822 0.829171 0.83316
28.02 1 0.673512 0.829846 0.833977
28.02 1 0.2565 0.0826441 0.920764
28.02 1 0.589718 0.0828432 0.911924
28.02 1 0.922103 0.0793499 0.917248
28.02 1 0.0831434 0.244742 0.916018
28.02 1 0.416303 0.263758 0.91851
28.02 1 0.743445 0.254075 0.923629
28.02 1 0.249035 0.413946 0.91143
28.02 1 0.578347 0.417068 0.912753
28.02 1 0.916856 0.405074 0.916101
28.02 1 0.0851745 0.583103 0.918023
28.02 1 0.410279 0.567213 0.914906
28.02 1 0.75082 0.582462 0.919829
28.02 1 0.25072 0.756255 0.926334
28.02 1 0.584227 0.736134 0.897018
28.02 1 0.913331 0.748445 0.917077
28.02 1 0.0727678 0.922941 0.924188
28.02 1 0.424838 0.907346 0.910945
28.02 1 0.745015 0.92343 0.916653
ITEM: TIMESTEP
15000
ITEM: NUMBER OF ATOMS
216
ITEM: BOX BOUNDS pp pp pp
-1.4877231610681108e-02 1.6304877231610462e+01
-1.4877231610681108e-02 1.6304877231610462e+01
-1.4877231610681108e-02 1.6304877231610462e+01
ITEM: ATOMS mass type xs ys zs
28.02 1 -0.0090457 -0.00310537 -0.0048692
28.02 1 0.33012 0.00119945 -0.00952078
28.02 1 0.659744 0.00322067 0.00270066
28.02 1 0.176424 0.176455 0.000354518
28.02 1 0.497889 0.169431 0.00105485
28.02 1 0.821113 0.17097 0.0100764
28.02 1 0.00760374 0.337727 0.00375029
28.02 1 0.332339 0.332215 0.00355664
28.02 1 0.661695 0.333308 -0.00354714
28.02 1 0.161292 0.495517 -0.000807229
28.02 1 0.50969 0.497004 -0.00673173
28.02 1 0.832011 0.499231 0.00763719
28.02 1 -0.00292289 0.669124 -0.00592286
28.02 1 0.326479 0.658773 -0.0122698
28.02 1 0.669714 0.66923 -6.83847e-05
28.02 1 0.1637 0.834423 0.000726533
28.02 1 0.493584 0.836037 -0.00202325
28.02 1 0.829308 0.828974 -0.00431335
28.02 1 0.0843198 0.077192 0.0757284
28.02 1 0.414214 0.0905469 0.0836221
28.02 1 0.744286 0.0784651 0.0822207
28.02 1 0.252886 0.251394 0.0889827
28.02 1 0.5787 0.256825 0.0868613
28.02 1 0.920548 0.248023 0.0750769
28.02 1 0.0877362 0.424912 0.0878923
28.02 1 0.424251 0.418241 0.0772919
28.02 1 0.746233 0.412562 0.0865956
28.02 1 0.242774 0.583505 0.0784328
28.02 1 0.582087 0.586603 0.079146
28.02 1 0.91064 0.58139 0.0846996
28.02 1 0.0879469 0.748313 0.0857351
28.02 1 0.411651 0.746497 0.0710109
28.02 1 0.753686 0.742037 0.0863657
28.02 1 0.254759 0.918625 0.0854226
28.02 1 0.581237 0.923979 0.0873366
28.02 1 0.912968 0.910248 0.0765646
28.02 1 0.168446 0.000327359 0.164713
28.02 1 0.503237 0.00804553 0.163533
28.02 1 0.834837 -0.00278753 0.16099
28.02 1 -0.00237213 0.167467 0.167748
28.02 1 0.32886 0.16613 0.175288
28.02 1 0.662173 0.169443 0.164629
28.02 1 0.180992 0.339334 0.167948
28.02 1 0.492796 0.331284 0.170772
28.02 1 0.826508 0.331487 0.168965
28.02 1 -0.00476276 0.501945 0.169251
28.02 1 0.338893 0.502981 0.161251
28.02 1 0.669893 0.503066 0.167008
28.02 1 0.176962 0.669559 0.167583
28.02 1 0.499598 0.674513 0.161308
28.02 1 0.829505 0.668675 0.164205
28.02 1 0.00294225 0.831008 0.163911
28.02 1 0.344278 0.833472 0.168283
28.02 1 0.670966 0.833295 0.168051
28.02 1 0.246958 0.0813283 0.253411
28.02 1 0.58509 0.0880747 0.253812
28.02 1 0.907264 0.0756761 0.248077
28.02 1 0.0915584 0.245942 0.247981
28.02 1 0.410348 0.253309 0.257927
28.02 1 0.74974 0.250548 0.254903
28.02 1 0.257178 0.420717 0.254861
28.02 1 0.586965 0.421278 0.257694
28.02 1 0.91459 0.418976 0.258547
28.02 1 0.0882693 0.593229 0.247208
28.02 1 0.414623 0.591892 0.251412
28.02 1 0.750005 0.584679 0.255577
28.02 1 0.251339 0.758467 0.252808
28.02 1 0.582137 0.755078 0.24718
28.02 1 0.918654 0.758932 0.250861
28.02 1 0.0834403 0.915047 0.244661
28.02 1 0.425992 0.924612 0.248533
28.02 1 0.754645 0.913482 0.250755
28.02 1 -0.00425328 -0.00421225 0.330329
28.02 1 0.331426 -0.00456046 0.327389
28.02 1 0.668298 -0.000831527 0.334888
28.02 1 0.165954 0.159193 0.343539
28.02 1 0.494248 0.165763 0.325724
28.02 1 0.826834 0.161244 0.330546
28.02 1 -0.000710139 0.329359 0.323778
28.02 1 0.33095 0.331831 0.345905
28.02 1 0.663329 0.334211 0.336713
28.02 1 0.163581 0.500234 0.330211
28.02 1 0.501689 0.506875 0.33608
28.02 1 0.828119 0.502175 0.337227
28.02 1 0.008098 0.669274 0.326339
28.02 1 0.329549 0.660542 0.332955
28.02 1 0.659073 0.664748 0.333938
28.02 1 0.170027 0.837764 0.33607
28.02 1 0.501797 0.833383 0.32819
28.02 1 0.83181 0.835972 0.341914
28.02 1 0.0781868 0.0747127 0.423224
28.02 1 0.422291 0.0757011 0.41174
28.02 1 0.752031 0.0783018 0.420749
28.02 1 0.247331 0.240407 0.426423
28.02 1 0.577505 0.246044 0.412148
28.02 1 0.91249 0.247426 0.399874
28.02 1 0.0888001 0.414838 0.413621
28.02 1 0.413932 0.419672 0.418959
28.02 1 0.752835 0.416268 0.422445
28.02 1 0.249895 0.580439 0.414926
28.02 1 0.590076 0.582071 0.424148
28.02 1 0.924863 0.579035 0.416775
28.02 1 0.0825261 0.754075 0.420136
28.02 1 0.423037 0.745556 0.40908
28.02 1 0.754683 0.740953 0.414616
28.02 1 0.249544 0.913947 0.416191
28.02 1 0.582518 0.913378 0.412684
28.02 1 0.91963 0.915712 0.42225
28.02 1 0.167371 -0.00508176 0.502584
28.02 1 0.495778 -0.00577342 0.493469
28.02 1 0.83405 -0.00215132 0.498713
28.02 1 -0.00598363 0.171171 0.498062
28.02 1 0.340061 0.16689 0.498941
28.02 1 0.669998 0.177409 0.496503
28.02 1 0.167926 0.331299 0.50532
28.02 1 0.500179 0.328358 0.493571
28.02 1 0.840824 0.324556 0.497845
28.02 1 0.00127485 0.490571 0.493259
28.02 1 0.328672 0.497315 0.498385
28.02 1 0.675104 0.502508 0.507113
28.02 1 0.160401 0.671782 0.497886
28.02 1 0.500722 0.66425 0.49587
28.02 1 0.842871 0.665183 0.502422
28.02 1 0.00086905 0.835219 0.506451
28.02 1 0.329218 0.825529 0.495622
28.02 1 0.662651 0.826825 0.50088
28.02 1 0.24401 0.0816098 0.580386
28.02 1 0.584252 0.0854176 0.573053
28.02 1 0.916255 0.0897423 0.587737
28.02 1 0.0762593 0.252946 0.579688
28.02 1 0.427798 0.252155 0.58332
28.02 1 0.762142 0.250429 0.585084
28.02 1 0.249266 0.418799 0.581463
28.02 1 0.58049 0.418236 0.580718
28.02 1 0.930951 0.406727 0.576193
28.02 1 0.0793575 0.579865 0.585029
28.02 1 0.414163 0.578552 0.578388
28.02 1 0.765937 0.581852 0.592506
28.02 1 0.24698 0.756155 0.584861
28.02 1 0.583702 0.748182 0.586062
28.02 1 0.914581 0.751748 0.586022
28.02 1 0.0720992 0.92909 0.588953
28.02 1 0.41161 0.90631 0.582456
28.02 1 0.750383 0.912648 0.583142
28.02 1 -0.0077578 0.00375519 0.670376
28.02 1 0.334493 -0.00111481 0.655134
28.02 1 0.660463 0.00139939 0.663088
28.02 1 0.154761 0.164795 0.669769
28.02 1 0.508928 0.160896 0.662832
28.02 1 0.837921 0.162117 0.67398
28.02 1 0.00259486 0.334733 0.670849
28.02 1 0.332258 0.341862 0.665733
28.02 1 0.671932 0.338143 0.663264
28.02 1 0.163747 0.498355 0.666958
28.02 1 0.501986 0.500606 0.674287
28.02 1 0.846658 0.486549 0.665648
28.02 1 -0.00289209 0.669288 0.661515
28.02 1 0.336209 0.667654 0.655153
28.02 1 0.68289 0.669665 0.669473
28.02 1 0.153311 0.845201 0.667
28.02 1 0.497159 0.825021 0.672882
28.02 1 0.829971 0.829743 0.673566
28.02 1 0.0778646 0.0899546 0.757822
28.02 1 0.410624 0.0787186 0.741513
28.02 1 0.743484 0.0853918 0.754974
28.02 1 0.247967 0.24339 0.74314
28.02 1 0.587607 0.255274 0.744124
28.02 1 0.923914 0.260877 0.757201
28.02 1 0.0920991 0.413869 0.754541
28.02 1 0.421067 0.410352 0.758235
28.02 1 0.757572 0.413123 0.750882
28.02 1 0.258108 0.585209 0.752137
28.02 1 0.591456 0.588537 0.756661
28.02 1 0.919825 0.579895 0.745394
28.02 1 0.0779322 0.757684 0.736387
28.02 1 0.417239 0.745065 0.751776
28.02 1 0.755425 0.744747 0.757202
28.02 1 0.259706 0.916473 0.747519
28.02 1 0.581106 0.919817 0.748616
28.02 1 0.908272 0.927387 0.756911
28.02 1 0.166527 -0.00201055 0.83637
28.02 1 0.501429 -0.000884653 0.834412
28.02 1 0.827166 -0.000774605 0.839903
28.02 1 -0.00972529 0.172199 0.852829
28.02 1 0.329403 0.164079 0.827402
28.02 1 0.666335 0.174065 0.835525
28.02 1 0.175681 0.326139 0.836245
28.02 1 0.507077 0.330643 0.832889
28.02 1 0.831484 0.337399 0.832636
28.02 1 -0.000173641 0.494059 0.833672
28.02 1 0.332791 0.491227 0.834104
28.02 1 0.67646 0.501889 0.827806
28.02 1 0.150458 0.671967 0.827847
28.02 1 0.496723 0.664752 0.838936
28.02 1 0.833392 0.660681 0.828218
28.02 1 -0.00690961 0.838991 0.828044
28.02 1 0.329549 0.831399 0.840056
28.02 1 0.668114 0.828679 0.83302
28.02 1 0.246501 0.0850982 0.913441