ITEM: TIMESTEP
0
ITEM: NUMBER OF ATOMS
64
ITEM: BOX BOUNDS pp pp pp
0.0000000000000000e+00 8.0000000000000000e+00
0.0000000000000000e+00 8.0000000000000000e+00
0.0000000000000000e+00 8.0000000000000000e+00
ITEM: ATOMS mass type xs ys zs
28 1 0 0 0
28 1 0.5 1.01178e-17 0
28 1 0.25 0.25 0
28 1 0.75 0.25 0
28 1 0 0.5 6.3236e-18
28 1 0.5 0.5 0
28 1 0.25 0.75 0
28 1 0.75 0.75 0
28 1 0.125 0.125 0.125
28 1 0.625 0.125 0.125
28 1 0.375 0.375 0.125
28 1 0.875 0.375 0.125
28 1 0.125 0.625 0.125
28 1 0.625 0.625 0.125
28 1 0.375 0.875 0.125
28 1 0.875 0.875 0.125
28 1 0.25 1.65599e-17 0.25
28 1 0.75 3.79416e-18 0.25
28 1 0 0.25 0.25
28 1 0.5 0.25 0.25
28 1 0.25 0.5 0.25
28 1 0.75 0.5 0.25
28 1 1.01178e-17 0.75 0.25
28 1 0.5 0.75 0.25
28 1 0.375 0.125 0.375
28 1 0.875 0.125 0.375
28 1 0.125 0.375 0.375
28 1 0.625 0.375 0.375
28 1 0.375 0.625 0.375
28 1 0.875 0.625 0.375
28 1 0.125 0.875 0.375
28 1 0.625 0.875 0.375
28 1 1.51766e-17 0 0.5
28 1 0.5 0 0.5
28 1 0.25 0.25 0.5
28 1 0.75 0.25 0.5
28 1 0 0.5 0.5
28 1 0.5 0.5 0.5
28 1 0.25 0.75 0.5
28 1 0.75 0.75 0.5
28 1 0.125 0.125 0.625
28 1 0.625 0.125 0.625
28 1 0.375 0.375 0.625
28 1 0.875 0.375 0.625
28 1 0.125 0.625 0.625
28 1 0.625 0.625 0.625
28 1 0.375 0.875 0.625
28 1 0.875 0.875 0.625
28 1 0.25 1.40305e-17 0.75
28 1 0.75 1.13825e-17 0.75
28 1 1.01178e-17 0.25 0.75
28 1 0.5 0.25 0.75
28 1 0.25 0.5 0.75
28 1 0.75 0.5 0.75
28 1 5.05888e-18 0.75 0.75
28 1 0.5 0.75 0.75
28 1 0.375 0.125 0.875
28 1 0.875 0.125 0.875
28 1 0.125 0.375 0.875
28 1 0.625 0.375 0.875
28 1 0.375 0.625 0.875
28 1 0.875 0.625 0.875
28 1 0.125 0.875 0.875
28 1 0.625 0.875 0.875
ITEM: TIMESTEP
5000
ITEM: NUMBER OF ATOMS
64
ITEM: BOX BOUNDS pp pp pp
-1.4362429968172350e+00 9.4362429968172563e+00
-1.4362429968172350e+00 9.4362429968172563e+00
-1.4362429968172350e+00 9.4362429968172563e+00
ITEM: ATOMS mass type xs ys zs
28 1 0.999763 -0.00337139 0.0034002
28 1 0.500555 1.0003 -0.00464995
28 1 0.252855 0.248237 -0.0143127
28 1 0.743215 0.245369 1.00729
28 1 -0.00472033 0.504414 -0.00391972
28 1 0.51046 0.4982 1.00525
28 1 0.251553 0.753851 -0.00404365
28 1 0.746197 0.754522 0.99618
28 1 0.133441 0.127171 0.119603
28 1 0.610362 0.115721 0.130996
28 1 0.373535 0.368941 0.116842
28 1 0.880587 0.380429 0.133699
28 1 0.125042 0.6303 0.126014
28 1 0.6392 0.619467 0.124354
28 1 0.372393 0.874201 0.124885
28 1 0.869459 0.878473 0.129583
28 1 0.245489 0.00184463 0.249415
28 1 0.749676 1.00722 0.255134
28 1 1.00974 0.256452 0.250806
28 1 0.490501 0.247777 0.254126
28 1 0.248426 0.501408 0.244938
28 1 0.752001 0.492125 0.253559
28 1 0.999685 0.756968 0.252957
28 1 0.495733 0.737452 0.244629
28 1 0.369738 0.122694 0.377057
28 1 0.882291 0.133336 0.372804
28 1 0.134222 0.375558 0.377794
28 1 0.620574 0.367662 0.377402
28 1 0.364739 0.623627 0.365271
28 1 0.877251 0.623026 0.381763
28 1 0.133196 0.875094 0.374558
28 1 0.624803 0.867342 0.373068
28 1 1.00789 -0.00149282 0.496492
28 1 0.501388 1 0.499694
28 1 0.255657 0.245297 0.51551
28 1 0.751391 0.245331 0.490653
28 1 -0.000522876 0.493526 0.509982
28 1 0.493691 0.511356 0.489556
28 1 0.248431 0.74835 0.498973
28 1 0.748382 0.747428 0.497928
28 1 0.119478 0.119148 0.62684
28 1 0.632529 0.131562 0.624248
28 1 0.376872 0.386412 0.625934
28 1 0.86673 0.370073 0.619917
28 1 0.1216 0.622867 0.624348
28 1 0.619962 0.622341 0.621081
28 1 0.37291 0.875874 0.634653
28 1 0.881169 0.868777 0.621762
28 1 0.249896 0.00502209 0.751084
28 1 0.752695 0.995335 0.747548
28 1 -0.00358167 0.251774 0.75327
28 1 0.504255 0.257445 0.750281
28 1 0.249782 0.507415 0.756419
28 1 0.752036 0.498667 0.747365
28 1 0.997693 0.742257 0.752985
28 1 0.503091 0.750609 0.750743
28 1 0.378632 0.125779 0.871795
28 1 0.872397 0.124245 0.87647
28 1 0.122236 0.381628 0.872971
28 1 0.629506 0.379865 0.876104
28 1 0.382373 0.628741 0.874863
28 1 0.868962 0.627593 0.880761
28 1 0.120321 0.872658 0.871108
28 1 0.62019 0.878307 0.872203
ITEM: TIMESTEP
10000
ITEM: NUMBER OF ATOMS
64
ITEM: BOX BOUNDS pp pp pp
-1.4346123454385538e+00 9.4346123454385946e+00
-1.4346123454385538e+00 9.4346123454385946e+00
-1.4346123454385538e+00 9.4346123454385946e+00
ITEM: ATOMS mass type xs ys zs
28 1 0.995328 0.00406648 0.000454964
28 1 0.501533 1.00331 -0.000419247
28 1 0.243996 0.251874 0.00212013
28 1 0.751123 0.245194 1.00437
28 1 -0.00675027 0.494973 0.00143831
28 1 0.506766 0.496913 1.00057
28 1 0.249701 0.750699 0.00356937
28 1 0.74579 0.749945 1.00785
28 1 0.122377 0.121359 0.123084
28 1 0.628483 0.124287 0.1253
28 1 0.37796 0.375687 0.117859
28 1 0.876942 0.364988 0.130448
28 1 0.128824 0.621046 0.120693
28 1 0.619067 0.621198 0.132313
28 1 0.380015 0.881802 0.121538
28 1 0.880679 0.874157 0.120389
28 1 0.254986 0.00178282 0.249136
28 1 0.756151 0.993186 0.252679
28 1 0.999319 0.245108 0.248315
28 1 0.498297 0.253968 0.245044
28 1 0.254339 0.496822 0.251404
28 1 0.751078 0.505703 0.247817
28 1 1.00264 0.753643 0.246729
28 1 0.499055 0.752654 0.252907
28 1 0.372575 0.131358 0.373034
28 1 0.876528 0.123661 0.379639
28 1 0.121843 0.373459 0.374507
28 1 0.624975 0.379229 0.369434
28 1 0.379334 0.619902 0.379104
28 1 0.877614 0.626882 0.373912
28 1 0.119658 0.884244 0.371426
28 1 0.621909 0.876471 0.376442
28 1 1.0011 0.000273154 0.502892
28 1 0.494282 1.00152 0.498376
28 1 0.245218 0.254818 0.504396
28 1 0.752058 0.257694 0.496686
28 1 0.00476087 0.507828 0.504185
28 1 0.495263 0.492476 0.505366
28 1 0.246476 0.754767 0.49383
28 1 0.749183 0.754942 0.496398
28 1 0.126758 0.125949 0.626475
28 1 0.63299 0.122914 0.622378
28 1 0.378291 0.369932 0.627433
28 1 0.872815 0.386185 0.618206
28 1 0.129622 0.628085 0.631506
28 1 0.627614 0.624382 0.623427
28 1 0.379661 0.870916 0.625466
28 1 0.86941 0.873585 0.626849
28 1 0.252558 -0.00577887 0.752632
28 1 0.752233 0.996393 0.7516
28 1 -0.00432747 0.246892 0.742279
28 1 0.50595 0.2423 0.750286
28 1 0.25328 0.495042 0.751139
28 1 0.746557 0.499629 0.746294
28 1 0.99389 0.752364 0.746884
28 1 0.502853 0.749919 0.747572
28 1 0.371832 0.128824 0.878046
28 1 0.872662 0.126875 0.876351
28 1 0.124393 0.370141 0.871913
28 1 0.624335 0.372949 0.871829
28 1 0.374715 0.623938 0.880423
28 1 0.873749 0.628228 0.87212
28 1 0.116973 0.873812 0.879301
28 1 0.620716 0.872627 0.874354
ITEM: TIMESTEP
15000
ITEM: NUMBER OF ATOMS
64
ITEM: BOX BOUNDS pp pp pp
-1.4331180945644775e+00 9.4331180945645414e+00
-1.4331180945644775e+00 9.4331180945645414e+00
-1.4331180945644775e+00 9.4331180945645414e+00
ITEM: ATOMS mass type xs ys zs
28 1 0.998558 0.00727841 -0.00186368
28 1 0.506609 1.00468 0.010986
28 1 0.251991 0.252346 0.00226348
28 1 0.754418 0.258352 0.990342
28 1 0.00369026 0.502282 0.000407166
28 1 0.495269 0.505061 1.00144
28 1 0.247197 0.743956 -0.00536384
28 1 0.74778 0.750295 1.00019
28 1 0.128414 0.12552 0.131967
28 1 0.640117 0.130068 0.126768
28 1 0.375489 0.368872 0.126092
28 1 0.871148 0.375497 0.120684
28 1 0.137014 0.621202 0.12969
28 1 0.62218 0.631097 0.126262
28 1 0.3659 0.870561 0.127006
28 1 0.880499 0.87921 0.118732
28 1 0.243867 -0.00408056 0.251202
28 1 0.753432 0.992743 0.25145
28 1 0.994319 0.248358 0.251428
28 1 0.505016 0.244902 0.249203
28 1 0.251217 0.494364 0.253201
28 1 0.748755 0.508566 0.248372
28 1 1.00183 0.740709 0.243217
28 1 0.501851 0.743719 0.253092
28 1 0.365888 0.125725 0.370553
28 1 0.875702 0.118313 0.378186
28 1 0.117429 0.371674 0.364629
28 1 0.629186 0.371293 0.381759
28 1 0.371254 0.619718 0.380328
28 1 0.870107 0.633693 0.381411
28 1 0.122495 0.868971 0.372024
28 1 0.623189 0.874621 0.377469
28 1 1.00173 -0.00481432 0.49974
28 1 0.497821 1.00451 0.489052
28 1 0.243324 0.248234 0.495095
28 1 0.75119 0.246491 0.511396
28 1 -0.00732014 0.501314 0.485845
28 1 0.504065 0.504898 0.50758
28 1 0.249781 0.752647 0.500334
28 1 0.742912 0.755132 0.500235
28 1 0.126207 0.121816 0.627096
28 1 0.618469 0.125406 0.627262
28 1 0.372714 0.37238 0.61792
28 1 0.882763 0.378941 0.63012
28 1 0.123869 0.617841 0.623389
28 1 0.628675 0.629105 0.629194
28 1 0.377265 0.881092 0.620226
28 1 0.87612 0.867082 0.626977
28 1 0.254306 0.00600438 0.748712
28 1 0.752479 0.994502 0.748722
28 1 0.00297524 0.248338 0.750372
28 1 0.493364 0.251046 0.749459
28 1 0.253671 0.496687 0.752173
28 1 0.749834 0.499252 0.756867
28 1 1.00879 0.749618 0.751398
28 1 0.502804 0.747979 0.74456
28 1 0.376988 0.129382 0.876097
28 1 0.873896 0.122954 0.873199
28 1 0.125588 0.372832 0.872832
28 1 0.620336 0.378314 0.872404
28 1 0.375721 0.628635 0.867042
28 1 0.873085 0.625631 0.875754
28 1 0.126434 0.885122 0.879899
28 1 0.618331 0.882069 0.875915
ITEM: TIMESTEP
20000
ITEM: NUMBER OF ATOMS
64
ITEM: BOX BOUNDS pp pp pp
-1.4356504411296545e+00 9.4356504411296331e+00
-1.4356504411296545e+00 9.4356504411296331e+00
-1.4356504411296545e+00 9.4356504411296331e+00
ITEM: ATOMS mass type xs ys zs
28 1 0.997611 0.00439637 -0.00513162
28 1 0.488002 0.989697 -0.00521867
28 1 0.249087 0.253476 0.0127618
28 1 0.74684 0.25202 0.999608
28 1 0.0128136 0.501755 -0.000965265
28 1 0.49821 0.501228 0.994997
28 1 0.246673 0.755064 0.00123424
28 1 0.756592 0.742718 0.999162
28 1 0.115419 0.124076 0.121749
28 1 0.62421 0.110863 0.11698
28 1 0.378245 0.380912 0.130975
28 1 0.87538 0.381815 0.114138
28 1 0.127435 0.626089 0.135624
28 1 0.621181 0.628466 0.120807
28 1 0.377041 0.87521 0.131599
28 1 0.878772 0.86195 0.124822
28 1 0.243509 -0.000328025 0.253895
28 1 0.752307 0.997427 0.246297
28 1 0.990761 0.26109 0.247013
28 1 0.503445 0.248018 0.249546
28 1 0.258514 0.499501 0.256673
28 1 0.746512 0.492186 0.24606
28 1 0.999382 0.752664 0.257833
28 1 0.504182 0.749472 0.249407
28 1 0.382977 0.120399 0.368754
28 1 0.876638 0.12126 0.368022
28 1 0.119047 0.389562 0.375682
28 1 0.626609 0.378446 0.3815
28 1 0.377033 0.623042 0.377078
28 1 0.871881 0.620688 0.375767
28 1 0.126191 0.878283 0.383479
28 1 0.628769 0.866812 0.371347
28 1 1.00082 0.0102291 0.50114
28 1 0.507284 0.999711 0.500257
28 1 0.251258 0.259984 0.491433
28 1 0.757953 0.245813 0.497897
28 1 -0.00399117 0.498776 0.513208
28 1 0.50306 0.501072 0.498223
28 1 0.254425 0.752147 0.494508
28 1 0.754003 0.754124 0.504639
28 1 0.130118 0.126201 0.62635
28 1 0.629324 0.124933 0.628607
28 1 0.383326 0.37877 0.618746
28 1 0.87319 0.371393 0.632184
28 1 0.128936 0.630946 0.625203
28 1 0.625843 0.624199 0.617178
28 1 0.377738 0.878211 0.621743
28 1 0.869893 0.879769 0.624051
28 1 0.252723 0.00313146 0.746452
28 1 0.741832 0.9982 0.758626
28 1 0.00803105 0.243816 0.757976
28 1 0.495142 0.250626 0.747208
28 1 0.245541 0.490011 0.745556
28 1 0.745012 0.499165 0.749944
28 1 0.993203 0.748925 0.748577
28 1 0.491764 0.747835 0.748878
28 1 0.374235 0.124886 0.883272
28 1 0.872206 0.126881 0.873128
28 1 0.133166 0.371714 0.884329
28 1 0.620249 0.372805 0.870725
28 1 0.366323 0.629162 0.865201
28 1 0.876661 0.626339 0.875314
28 1 0.124235 0.876324 0.869682
28 1 0.615232 0.865646 0.878272
ITEM: TIMESTEP
25000
ITEM: NUMBER OF ATOMS
64
ITEM: BOX BOUNDS pp pp pp
-1.4376195455422627e+00 9.4376195455421907e+00
-1.4376195455422627e+00 9.4376195455421907e+00
-1.4376195455422627e+00 9.4376195455421907e+00
ITEM: ATOMS mass type xs ys zs
28 1 1.00519 -0.00467603 0.00434901
28 1 0.504647 0.999551 0.00276924
28 1 0.256901 0.243174 -0.000785228
28 1 0.753083 0.249849 0.996593
28 1 -0.00520054 0.493954 -0.0092218
28 1 0.498387 0.509619 1.00852
28 1 0.259626 0.752678 0.00634282
28 1 0.749442 0.748304 0.997881
28 1 0.127209 0.130381 0.120136
28 1 0.622495 0.129127 0.12067
28 1 0.36584 0.376824 0.126883
28 1 0.87141 0.376717 0.124468
28 1 0.12039 0.616936 0.1167
28 1 0.627405 0.635311 0.128495
28 1 0.382583 0.879399 0.128717
28 1 0.876049 0.877934 0.128909
28 1 0.246163 0.000806005 0.249171
28 1 0.752308 1.0022 0.245085
28 1 0.998375 0.243865 0.244945
28 1 0.496714 0.253886 0.247595
28 1 0.244567 0.506802 0.251263
28 1 0.746149 0.504854 0.244282
28 1 0.999701 0.744301 0.248663
28 1 0.499277 0.755234 0.250479
28 1 0.377912 0.127198 0.373491
28 1 0.862247 0.13427 0.370668
28 1 0.127945 0.368573 0.376034
28 1 0.621401 0.381454 0.371366
28 1 0.383783 0.628221 0.374435
28 1 0.867237 0.61866 0.380724
28 1 0.116398 0.862819 0.377051
28 1 0.629957 0.87562 0.376323
28 1 0.993093 0.00789508 0.492555
28 1 0.506172 0.997402 0.504957
28 1 0.255495 0.240121 0.499082
28 1 0.743164 0.249053 0.501741
28 1 0.0033141 0.487721 0.499322
28 1 0.500745 0.499973 0.503086
28 1 0.251034 0.743398 0.50247
28 1 0.747843 0.753256 0.505141
28 1 0.111465 0.129649 0.622836
28 1 0.624784 0.127136 0.628965
28 1 0.375361 0.372337 0.633882
28 1 0.881157 0.368354 0.625045
28 1 0.127492 0.619536 0.615131
28 1 0.624456 0.628275 0.628392
28 1 0.374405 0.871718 0.628252
28 1 0.869453 0.880857 0.628506
28 1 0.237298 -0.00272563 0.740427
28 1 0.754793 1.00872 0.754844
28 1 0.000994461 0.254612 0.753154
28 1 0.496535 0.249356 0.751331
28 1 0.250279 0.497313 0.748462
28 1 0.752378 0.497914 0.748937
28 1 1.00346 0.755046 0.7426
28 1 0.502856 0.749866 0.754512
28 1 0.374643 0.117514 0.872872
28 1 0.88283 0.122244 0.877554
28 1 0.131177 0.370449 0.877162
28 1 0.622762 0.3767 0.875299
28 1 0.373403 0.62299 0.876389
28 1 0.880235 0.626228 0.866615
28 1 0.125455 0.871546 0.880487
28 1 0.635884 0.881699 0.876991
ITEM: TIMESTEP
25017
ITEM: NUMBER OF ATOMS
64
ITEM: BOX BOUNDS pp pp pp
-1.4376195455422627e+00 9.4376195455421907e+00
-1.4376195455422627e+00 9.4376195455421907e+00
-1.4376195455422627e+00 9.4376195455421907e+00
ITEM: ATOMS mass type xs ys zs
28 1 7.58727e-09 1 7.07784e-08
28 1 0.5 1 1.81171e-07
28 1 0.25 0.25 1
28 1 0.75 0.25 1
28 1 1 0.5 1
28 1 0.5 0.5 -1.57057e-07
28 1 0.25 0.75 1.52537e-07
28 1 0.75 0.75 1
28 1 0.125 0.125 0.125
28 1 0.625 0.125 0.125
28 1 0.375 0.375 0.125
28 1 0.875 0.375 0.125
28 1 0.125 0.625 0.125
28 1 0.625 0.625 0.125
28 1 0.375 0.875 0.125
28 1 0.875 0.875 0.125
28 1 0.25 1.50377e-07 0.25
28 1 0.75 2.02502e-07 0.25
28 1 1 0.25 0.25
28 1 0.5 0.25 0.25
28 1 0.25 0.5 0.25
28 1 0.75 0.5 0.25
28 1 1 0.75 0.25
28 1 0.5 0.75 0.25
28 1 0.375 0.125 0.375
28 1 0.875 0.125 0.375
28 1 0.125 0.375 0.375
28 1 0.625 0.375 0.375
28 1 0.375 0.625 0.375
28 1 0.875 0.625 0.375
28 1 0.125 0.875 0.375
28 1 0.625 0.875 0.375
28 1 1 -6.61479e-07 0.5
28 1 0.5 1 0.5
28 1 0.25 0.25 0.5
28 1 0.75 0.25 0.5
28 1 9.38065e-09 0.5 0.5
28 1 0.5 0.5 0.5
28 1 0.25 0.75 0.5
28 1 0.75 0.75 0.5
28 1 0.125 0.125 0.625
28 1 0.625 0.125 0.625
28 1 0.375 0.375001 0.625
28 1 0.875 0.375 0.625
28 1 0.125 0.625 0.625
28 1 0.625 0.625 0.624999
28 1 0.375 0.875 0.625
28 1 0.875 0.875 0.625
28 1 0.25 1 0.75
28 1 0.75 -7.66836e-08 0.75
28 1 2.59575e-07 0.25 0.75
28 1 0.5 0.25 0.75
28 1 0.25 0.5 0.75
28 1 0.75 0.5 0.75
28 1 2.58615e-07 0.75 0.75
28 1 0.5 0.75 0.75
28 1 0.375 0.125 0.875
28 1 0.875 0.125 0.875
28 1 0.125 0.375 0.875
28 1 0.625 0.375 0.875
28 1 0.375 0.625 0.875
28 1 0.875 0.625 0.875
28 1 0.125 0.875 0.875
28 1 0.625 0.875 0.875
