ITEM: TIMESTEP
0
ITEM: NUMBER OF ATOMS
64
ITEM: BOX BOUNDS pp pp pp
0.0000000000000000e+00 1.0859999999999999e+01
0.0000000000000000e+00 1.0859999999999999e+01
0.0000000000000000e+00 1.0859999999999999e+01
ITEM: ATOMS mass type xs ys zs
28.02 1 0 0 0
28.02 1 0.5 0 0
28.02 1 0.25 0.25 0
28.02 1 0.75 0.25 0
28.02 1 0 0.5 0
28.02 1 0.5 0.5 0
28.02 1 0.25 0.75 0
28.02 1 0.75 0.75 0
28.02 1 0.125 0.125 0.125
28.02 1 0.625 0.125 0.125
28.02 1 0.375 0.375 0.125
28.02 1 0.875 0.375 0.125
28.02 1 0.125 0.625 0.125
28.02 1 0.625 0.625 0.125
28.02 1 0.375 0.875 0.125
28.02 1 0.875 0.875 0.125
28.02 1 0.25 0 0.25
28.02 1 0.75 0 0.25
28.02 1 0 0.25 0.25
28.02 1 0.5 0.25 0.25
28.02 1 0.25 0.5 0.25
28.02 1 0.75 0.5 0.25
28.02 1 0 0.75 0.25
28.02 1 0.5 0.75 0.25
28.02 1 0.375 0.125 0.375
28.02 1 0.875 0.125 0.375
28.02 1 0.125 0.375 0.375
28.02 1 0.625 0.375 0.375
28.02 1 0.375 0.625 0.375
28.02 1 0.875 0.625 0.375
28.02 1 0.125 0.875 0.375
28.02 1 0.625 0.875 0.375
28.02 1 0 0 0.5
28.02 1 0.5 0 0.5
28.02 1 0.25 0.25 0.5
28.02 1 0.75 0.25 0.5
28.02 1 0 0.5 0.5
28.02 1 0.5 0.5 0.5
28.02 1 0.25 0.75 0.5
28.02 1 0.75 0.75 0.5
28.02 1 0.125 0.125 0.625
28.02 1 0.625 0.125 0.625
28.02 1 0.375 0.375 0.625
28.02 1 0.875 0.375 0.625
28.02 1 0.125 0.625 0.625
28.02 1 0.625 0.625 0.625
28.02 1 0.375 0.875 0.625
28.02 1 0.875 0.875 0.625
28.02 1 0.25 0 0.75
28.02 1 0.75 0 0.75
28.02 1 0 0.25 0.75
28.02 1 0.5 0.25 0.75
28.02 1 0.25 0.5 0.75
28.02 1 0.75 0.5 0.75
28.02 1 0 0.75 0.75
28.02 1 0.5 0.75 0.75
28.02 1 0.375 0.125 0.875
28.02 1 0.875 0.125 0.875
28.02 1 0.125 0.375 0.875
28.02 1 0.625 0.375 0.875
28.02 1 0.375 0.625 0.875
28.02 1 0.875 0.625 0.875
28.02 1 0.125 0.875 0.875
28.02 1 0.625 0.875 0.875
ITEM: TIMESTEP
5000
ITEM: NUMBER OF ATOMS
64
ITEM: BOX BOUNDS pp pp pp
-6.6589430918897463e-03 1.0866658943091956e+01
-6.6589430918897463e-03 1.0866658943091956e+01
-6.6589430918897463e-03 1.0866658943091956e+01
ITEM: ATOMS mass type xs ys zs
28.02 1 0.00817422 -0.000760119 -0.0044612
28.02 1 0.507394 0.0066918 0.0078423
28.02 1 0.246764 0.252227 0.00760104
28.02 1 0.752425 0.243993 -0.00104892
28.02 1 0.00501835 0.503869 0.00509928
28.02 1 0.500817 0.491807 -0.00304056
28.02 1 0.258976 0.743879 -0.00101638
28.02 1 0.740958 0.747962 -0.00255177
28.02 1 0.121065 0.122324 0.122522
28.02 1 0.622157 0.131446 0.125667
28.02 1 0.371338 0.382192 0.132527
28.02 1 0.870954 0.380789 0.129109
28.02 1 0.130434 0.626558 0.130577
28.02 1 0.620886 0.620629 0.115958
28.02 1 0.37243 0.877815 0.129656
28.02 1 0.871267 0.87589 0.120223
28.02 1 0.250554 -0.000461987 0.24587
28.02 1 0.746503 -0.00866775 0.247
28.02 1 -0.00477424 0.246165 0.247385
28.02 1 0.501731 0.261424 0.254696
28.02 1 0.258284 0.503622 0.254808
28.02 1 0.745803 0.509124 0.248202
28.02 1 -0.000775395 0.753367 0.249975
28.02 1 0.502585 0.747862 0.240154
28.02 1 0.386049 0.120768 0.373801
28.02 1 0.872244 0.128988 0.375255
28.02 1 0.127272 0.371193 0.365889
28.02 1 0.629159 0.381895 0.380728
28.02 1 0.381864 0.62823 0.376156
28.02 1 0.876871 0.617652 0.377698
28.02 1 0.126268 0.879292 0.382751
28.02 1 0.628372 0.857392 0.367581
28.02 1 -0.00671684 0.00441345 0.50478
28.02 1 0.505113 -0.00863708 0.498839
28.02 1 0.251783 0.240557 0.48915
28.02 1 0.74902 0.252826 0.503436
28.02 1 4.38663e-05 0.500625 0.494277
28.02 1 0.503073 0.510678 0.50706
28.02 1 0.253137 0.742875 0.495777
28.02 1 0.748779 0.744841 0.504154
28.02 1 0.123809 0.128256 0.625988
28.02 1 0.629962 0.127759 0.623234
28.02 1 0.36973 0.376792 0.614159
28.02 1 0.872731 0.37853 0.629441
28.02 1 0.124435 0.629823 0.625212
28.02 1 0.625124 0.633752 0.63416
28.02 1 0.369141 0.870361 0.624135
28.02 1 0.868609 0.874143 0.62189
28.02 1 0.250087 0.00277574 0.74591
28.02 1 0.741417 -0.00873362 0.757154
28.02 1 -0.00546462 0.252388 0.754726
28.02 1 0.502156 0.253612 0.746514
28.02 1 0.252941 0.49349 0.745077
28.02 1 0.744115 0.499543 0.750394
28.02 1 -0.00618876 0.757178 0.748694
28.02 1 0.497067 0.754791 0.759146
28.02 1 0.374353 0.1257 0.880115
28.02 1 0.8774 0.12024 0.874181
28.02 1 0.124039 0.374923 0.879211
28.02 1 0.626093 0.370843 0.870691
28.02 1 0.377772 0.614015 0.872156
28.02 1 0.873163 0.629848 0.876322
28.02 1 0.1329 0.872931 0.864407
28.02 1 0.62131 0.873704 0.876998
ITEM: TIMESTEP
10000
ITEM: NUMBER OF ATOMS
64
ITEM: BOX BOUNDS pp pp pp
-1.6217565407601775e-02 1.0876217565407664e+01
-1.6217565407601775e-02 1.0876217565407664e+01
-1.6217565407601775e-02 1.0876217565407664e+01
ITEM: ATOMS mass type xs ys zs
28.02 1 0.00146501 0.00382629 0.00832993
28.02 1 0.50403 0.00475287 -0.000503892
28.02 1 0.251857 0.240369 0.00778091
28.02 1 0.748206 0.242601 -0.00799074
28.02 1 0.0103721 0.500097 -0.00514453
28.02 1 0.503232 0.498964 -0.00810043
28.02 1 0.250093 0.752005 0.000818991
28.02 1 0.749807 0.746434 -0.00324995
28.02 1 0.122955 0.134782 0.141574
28.02 1 0.628796 0.131872 0.129863
28.02 1 0.375713 0.369624 0.126118
28.02 1 0.873853 0.374117 0.115386
28.02 1 0.125322 0.620645 0.128058
28.02 1 0.608671 0.626347 0.124711
28.02 1 0.383639 0.878753 0.117338
28.02 1 0.869696 0.879669 0.121454
28.02 1 0.246169 -0.00392841 0.249688
28.02 1 0.752944 0.00166635 0.254748
28.02 1 -0.00393043 0.257716 0.248116
28.02 1 0.500592 0.25183 0.252172
28.02 1 0.250303 0.495625 0.249085
28.02 1 0.748809 0.502893 0.243345
28.02 1 -0.00537146 0.750757 0.251548
28.02 1 0.487177 0.749306 0.25597
28.02 1 0.374465 0.123495 0.371123
28.02 1 0.880377 0.124078 0.377312
28.02 1 0.124292 0.368767 0.377744
28.02 1 0.629333 0.374067 0.373719
28.02 1 0.371103 0.625448 0.379094
28.02 1 0.87098 0.619724 0.376625
28.02 1 0.125674 0.871822 0.374695
28.02 1 0.632631 0.867061 0.369516
28.02 1 -0.00418821 -0.00660983 0.503972
28.02 1 0.51074 -0.000142963 0.490624
28.02 1 0.247763 0.250267 0.506086
28.02 1 0.756861 0.246219 0.496443
28.02 1 -0.00211458 0.492733 0.497518
28.02 1 0.497712 0.505329 0.498787
28.02 1 0.251635 0.757579 0.496117
28.02 1 0.751893 0.739877 0.510374
28.02 1 0.125261 0.123873 0.624621
28.02 1 0.629024 0.12695 0.622347
28.02 1 0.370571 0.379336 0.625868
28.02 1 0.876166 0.36955 0.626403
28.02 1 0.123708 0.629576 0.613815
28.02 1 0.621667 0.625803 0.622143
28.02 1 0.373628 0.885627 0.625659
28.02 1 0.87511 0.876184 0.631753
28.02 1 0.241822 0.00766339 0.755562
28.02 1 0.756412 -0.000383553 0.749706
28.02 1 -0.00541053 0.249946 0.752551
28.02 1 0.493168 0.258566 0.747886
28.02 1 0.245655 0.504263 0.753509
28.02 1 0.754149 0.495895 0.746567
28.02 1 0.00633913 0.754321 0.747061
28.02 1 0.493971 0.753628 0.748357
28.02 1 0.373301 0.117679 0.871437
28.02 1 0.887369 0.11951 0.877858
28.02 1 0.130701 0.367674 0.879339
28.02 1 0.621239 0.377831 0.871046
28.02 1 0.37777 0.627596 0.87914
28.02 1 0.885914 0.619513 0.873889
28.02 1 0.1187 0.879141 0.87744
28.02 1 0.620213 0.87982 0.87518
ITEM: TIMESTEP
15000
ITEM: NUMBER OF ATOMS
64
ITEM: BOX BOUNDS pp pp pp
-8.5720795444954589e-03 1.0868572079544521e+01
-8.5720795444954589e-03 1.0868572079544521e+01
-8.5720795444954589e-03 1.0868572079544521e+01
ITEM: ATOMS mass type xs ys zs
28.02 1 -0.00831654 0.00676225 -0.00573825
28.02 1 0.500591 -0.0120746 -0.00467979
28.02 1 0.250958 0.246265 -0.00588944
28.02 1 0.745623 0.249683 0.00917414
28.02 1 0.0109774 0.492082 -0.00279023
28.02 1 0.495412 0.506728 0.000564948
28.02 1 0.249217 0.75754 0.0122741
28.02 1 0.754799 0.748918 0.00470641
28.02 1 0.122393 0.124533 0.115176
28.02 1 0.618013 0.117137 0.116973
28.02 1 0.376528 0.377566 0.118084
28.02 1 0.874017 0.379741 0.128765
28.02 1 0.127554 0.622506 0.125069
28.02 1 0.62781 0.623092 0.125864
28.02 1 0.378139 0.881418 0.134285
28.02 1 0.876466 0.873918 0.127839
28.02 1 0.240728 0.00678691 0.247197
28.02 1 0.749671 0.00215647 0.251536
28.02 1 0.00290948 0.245933 0.24891
28.02 1 0.500066 0.247798 0.245056
28.02 1 0.250933 0.503917 0.249971
28.02 1 0.751571 0.498692 0.261822
28.02 1 0.00248567 0.747596 0.246363
28.02 1 0.50643 0.753481 0.25268
28.02 1 0.36998 0.12642 0.377105
28.02 1 0.873613 0.131206 0.373615
28.02 1 0.12138 0.38063 0.376135
28.02 1 0.626447 0.372514 0.378751
28.02 1 0.374615 0.616819 0.3651
28.02 1 0.881861 0.623706 0.380087
28.02 1 0.125867 0.878255 0.365249
28.02 1 0.62246 0.879586 0.384766
28.02 1 0.00313634 -0.00251907 0.486715
28.02 1 0.494394 0.00352034 0.509916
28.02 1 0.244506 0.251743 0.501688
28.02 1 0.752041 0.25838 0.50615
28.02 1 0.00684979 0.500796 0.508688
28.02 1 0.496783 0.490981 0.496952
28.02 1 0.249671 0.742669 0.488599
28.02 1 0.756996 0.749473 0.501034
28.02 1 0.116268 0.125183 0.624915
28.02 1 0.634604 0.126025 0.632272
28.02 1 0.379129 0.363777 0.622549
28.02 1 0.879149 0.382171 0.627678
28.02 1 0.12915 0.63376 0.639885
28.02 1 0.619784 0.631154 0.628142
28.02 1 0.370272 0.868851 0.621449
28.02 1 0.878995 0.871791 0.614055
28.02 1 0.243844 -0.00993964 0.748814
28.02 1 0.759868 0.00528368 0.744069
28.02 1 -0.0058664 0.252021 0.745845
28.02 1 0.501981 0.242045 0.758609
28.02 1 0.256833 0.50076 0.744375
28.02 1 0.743343 0.503416 0.758359
28.02 1 -0.00313342 0.757248 0.74705
28.02 1 0.497651 0.748016 0.747054
28.02 1 0.374048 0.113935 0.874708
28.02 1 0.862588 0.135361 0.872903
28.02 1 0.126194 0.367697 0.866627
28.02 1 0.619509 0.372942 0.883865
28.02 1 0.368525 0.627272 0.876412
28.02 1 0.878756 0.626634 0.87596
28.02 1 0.127714 0.876761 0.878762
28.02 1 0.635222 0.871482 0.861879
ITEM: TIMESTEP
20000
ITEM: NUMBER OF ATOMS
64
ITEM: BOX BOUNDS pp pp pp
8.8353479209413166e-04 1.0859116465207922e+01
8.8353479209413166e-04 1.0859116465207922e+01
8.8353479209413166e-04 1.0859116465207922e+01
ITEM: ATOMS mass type xs ys zs
28.02 1 0.000753293 -0.00293814 0.00730563
28.02 1 0.506309 0.00324794 -0.00364057
28.02 1 0.254822 0.249674 -0.00188768
28.02 1 0.746352 0.252341 -0.0104218
28.02 1 -0.0120494 0.50556 -0.00162792
28.02 1 0.494457 0.506897 0.00269702
28.02 1 0.244952 0.750227 -0.000339373
28.02 1 0.747273 0.748487 0.00314328
28.02 1 0.12986 0.127428 0.132039
28.02 1 0.630948 0.12809 0.127173
28.02 1 0.374015 0.376187 0.121483
28.02 1 0.874665 0.370446 0.117909
28.02 1 0.121538 0.620617 0.126555
28.02 1 0.622714 0.62302 0.12706
28.02 1 0.377363 0.871169 0.118787
28.02 1 0.87655 0.86753 0.130196
28.02 1 0.258341 -0.00354715 0.247471
28.02 1 0.748212 0.0034167 0.247903
28.02 1 0.00264363 0.245425 0.252897
28.02 1 0.50473 0.250419 0.24839
28.02 1 0.243885 0.496385 0.250192
28.02 1 0.745245 0.494898 0.244653
28.02 1 0.00154726 0.744836 0.251766
28.02 1 0.499456 0.743809 0.252631
28.02 1 0.370465 0.129207 0.377478
28.02 1 0.874943 0.125939 0.384391
28.02 1 0.130737 0.37772 0.377039
28.02 1 0.629626 0.3738 0.367314
28.02 1 0.372017 0.627205 0.372877
28.02 1 0.864559 0.624234 0.370733
28.02 1 0.125466 0.869886 0.369354
28.02 1 0.618399 0.875897 0.377051
28.02 1 -0.00361888 -0.00248468 0.503729
28.02 1 0.498015 0.00325757 0.502304
28.02 1 0.255592 0.258589 0.509318
28.02 1 0.746228 0.251176 0.500233
28.02 1 -0.00634202 0.500773 0.502296
28.02 1 0.499941 0.49535 0.491604
28.02 1 0.252862 0.752072 0.500576
28.02 1 0.74515 0.758118 0.491414
28.02 1 0.124509 0.123289 0.628629
28.02 1 0.628015 0.115208 0.6216
28.02 1 0.377751 0.383725 0.631175
28.02 1 0.873381 0.369534 0.628403
28.02 1 0.125696 0.615608 0.61741
28.02 1 0.621739 0.620178 0.61173
28.02 1 0.376342 0.8856 0.624847
28.02 1 0.879661 0.869939 0.633215
28.02 1 0.255648 0.00161233 0.753112
28.02 1 0.750727 -0.00402367 0.754449
28.02 1 0.0027618 0.250803 0.759329
28.02 1 0.508956 0.251165 0.747236
28.02 1 0.253361 0.506702 0.756828
28.02 1 0.743594 0.495893 0.740193
28.02 1 0.00526369 0.737179 0.753025
28.02 1 0.501407 0.754353 0.740806
28.02 1 0.383549 0.129492 0.875159
28.02 1 0.875618 0.119276 0.87177
28.02 1 0.12737 0.379845 0.877559
28.02 1 0.619676 0.383614 0.874325
28.02 1 0.380161 0.642396 0.876072
28.02 1 0.863909 0.626459 0.874423
28.02 1 0.12664 0.873637 0.880959
28.02 1 0.625639 0.874151 0.877702
ITEM: TIMESTEP
25000
ITEM: NUMBER OF ATOMS
64
ITEM: BOX BOUNDS pp pp pp
8.6414973847226406e-04 1.0859135850261673e+01
8.6414973847226406e-04 1.0859135850261673e+01
8.6414973847226406e-04 1.0859135850261673e+01
ITEM: ATOMS mass type xs ys zs
28.02 1 -0.00688196 -0.000736168 -0.0122391
28.02 1 0.486108 0.00409117 0.0048605
28.02 1 0.245602 0.257793 -0.000803353
28.02 1 0.752428 0.258795 -0.00473514
28.02 1 0.00253626 0.50099 0.00755431
28.02 1 0.506521 0.487341 0.00791616
28.02 1 0.251194 0.749037 -0.00684853
28.02 1 0.749012 0.750399 0.00614524
28.02 1 0.124862 0.120066 0.117847
28.02 1 0.622244 0.121608 0.117971
28.02 1 0.376619 0.37285 0.13175
28.02 1 0.879927 0.380863 0.126824
28.02 1 0.131208 0.632775 0.117476
28.02 1 0.62816 0.618319 0.131183
28.02 1 0.374352 0.867456 0.133714
28.02 1 0.871205 0.877978 0.126862
28.02 1 0.248114 -0.00183917 0.250486
28.02 1 0.753299 0.00224445 0.248097
28.02 1 0.00174779 0.248298 0.243938
28.02 1 0.502567 0.246434 0.25242
28.02 1 0.253945 0.50127 0.245852
28.02 1 0.760549 0.495501 0.257001
28.02 1 0.00432407 0.757955 0.243825
28.02 1 0.501242 0.746109 0.256951
28.02 1 0.378948 0.12593 0.375169
28.02 1 0.879591 0.128963 0.371409
28.02 1 0.116739 0.374737 0.366725
28.02 1 0.62247 0.372165 0.384973
28.02 1 0.374595 0.625736 0.376456
28.02 1 0.887075 0.627255 0.366057
28.02 1 0.124255 0.88275 0.38844
28.02 1 0.62433 0.883892 0.375884
28.02 1 0.00123796 0.00875035 0.502685
28.02 1 0.494533 -0.00492712 0.499751
28.02 1 0.244574 0.248889 0.489407
28.02 1 0.749807 0.24465 0.502959
28.02 1 0.00319078 0.506091 0.502128
28.02 1 0.493626 0.50324 0.507193
28.02 1 0.243586 0.750555 0.499844
28.02 1 0.75518 0.753711 0.492523
28.02 1 0.130272 0.124311 0.628274
28.02 1 0.614946 0.124365 0.625697
28.02 1 0.375205 0.361977 0.61982
28.02 1 0.872792 0.372708 0.620673
28.02 1 0.125652 0.62795 0.628616
28.02 1 0.63425 0.628518 0.621964
28.02 1 0.380742 0.867757 0.627778
28.02 1 0.868172 0.882354 0.622319
28.02 1 0.257209 -0.00645879 0.746685
28.02 1 0.743186 -0.00159222 0.747366
28.02 1 -0.00229539 0.252908 0.747926
28.02 1 0.496366 0.250092 0.75742
28.02 1 0.252551 0.495911 0.743156
28.02 1 0.754227 0.506588 0.755668
28.02 1 -0.0031862 0.744558 0.749482
28.02 1 0.506362 0.741477 0.755114
28.02 1 0.362889 0.125901 0.873923
28.02 1 0.869624 0.130296 0.867198
28.02 1 0.115398 0.377774 0.87524
28.02 1 0.628707 0.373605 0.867023
28.02 1 0.379926 0.610523 0.882098
28.02 1 0.876147 0.629525 0.881005
28.02 1 0.123998 0.872855 0.868864
28.02 1 0.622238 0.878112 0.881038
ITEM: TIMESTEP
30000
ITEM: NUMBER OF ATOMS
64
ITEM: BOX BOUNDS pp pp pp
-2.1025989279600310e-02 1.0881025989279776e+01
-2.1025989279600310e-02 1.0881025989279776e+01
-2.1025989279600310e-02 1.0881025989279776e+01
ITEM: ATOMS mass type xs ys zs
28.02 1 0.00386233 -0.00288744 0.00277006
28.02 1 0.511397 0.00796718 -0.00287085
28.02 1 0.242606 0.252421 0.00432591
28.02 1 0.752806 0.243957 -0.00659146
28.02 1 -0.00721037 0.499804 0.00439251
28.02 1 0.498303 0.496364 -0.00617723
28.02 1 0.250781 0.746031 0.000297132
28.02 1 0.744785 0.747867 -0.00580337
28.02 1 0.123222 0.128975 0.132674
28.02 1 0.636305 0.131347 0.131887
28.02 1 0.366162 0.378471 0.122216
28.02 1 0.871614 0.362937 0.128275
28.02 1 0.12206 0.619654 0.130148
28.02 1 0.628025 0.632387 0.121985
28.02 1 0.366517 0.881756 0.117712
28.02 1 0.878631 0.869631 0.119113
28.02 1 0.249358 0.00387752 0.258332
28.02 1 0.753278 -0.00609085 0.250431
28.02 1 -0.00895946 0.244397 0.260176
28.02 1 0.490287 0.252843 0.24902
28.02 1 0.241319 0.4983 0.251736
28.02 1 0.752708 0.504047 0.243001
28.02 1 0.00188984 0.748176 0.252477
28.02 1 0.490398 0.754909 0.23975
28.02 1 0.384449 0.115092 0.372051
28.02 1 0.866195 0.111046 0.381064
28.02 1 0.128549 0.367273 0.377709
28.02 1 0.624245 0.381097 0.375276
28.02 1 0.37114 0.629187 0.375008
28.02 1 0.876222 0.625708 0.376805
28.02 1 0.119753 0.879544 0.37117
28.02 1 0.616911 0.872333 0.371866
28.02 1 0.00424679 -0.0110021 0.50949
28.02 1 0.50506 -0.000835431 0.499623
28.02 1 0.259324 0.244569 0.497701
28.02 1 0.75117 0.247301 0.501628
28.02 1 0.000664882 0.49394 0.496387
28.02 1 0.494661 0.507703 0.505468
28.02 1 0.243548 0.757272 0.502086
28.02 1 0.754333 0.748505 0.499736
28.02 1 0.134407 0.12974 0.625396
28.02 1 0.627609 0.128387 0.622723
28.02 1 0.372948 0.380445 0.624797
28.02 1 0.882758 0.367033 0.631263
28.02 1 0.11995 0.622131 0.619578
28.02 1 0.627948 0.628252 0.617913
28.02 1 0.373231 0.884345 0.623613
28.02 1 0.875144 0.872077 0.634835
28.02 1 0.25681 0.00672775 0.752095
28.02 1 0.755228 0.00100768 0.752937
28.02 1 0.0128711 0.248156 0.759763
28.02 1 0.503995 0.257672 0.739034
28.02 1 0.238959 0.501201 0.746121
28.02 1 0.752102 0.49957 0.748516
28.02 1 0.000535966 0.751352 0.753608
28.02 1 0.497585 0.752499 0.742259
28.02 1 0.382297 0.135994 0.871932
28.02 1 0.884602 0.118129 0.869657
28.02 1 0.118918 0.382274 0.882214
28.02 1 0.619813 0.378185 0.874699
28.02 1 0.373611 0.621942 0.866737
28.02 1 0.873167 0.621985 0.875797
28.02 1 0.132135 0.874084 0.87489
28.02 1 0.62276 0.870937 0.87728
ITEM: TIMESTEP
35000
ITEM: NUMBER OF ATOMS
64
ITEM: BOX BOUNDS pp pp pp
-2.6614705631065938e-02 1.0886614705631324e+01
-2.6614705631065938e-02 1.0886614705631324e+01
-2.6614705631065938e-02 1.0886614705631324e+01
ITEM: ATOMS mass type xs ys zs
28.02 1 0.0069666 0.00906363 -0.0010295
28.02 1 0.498008 -0.0040587 0.00597776
28.02 1 0.255678 0.250191 0.00108597
28.02 1 0.752162 0.250931 0.000615642
28.02 1 0.00279873 0.496922 -0.0105706
28.02 1 0.504256 0.496015 0.00447705
28.02 1 0.247393 0.739794 0.00427236
28.02 1 0.760521 0.749302 -0.00367742
28.02 1 0.126397 0.129356 0.125349
28.02 1 0.626702 0.12248 0.128114
28.02 1 0.385464 0.374433 0.132226
28.02 1 0.870658 0.38889 0.118488
28.02 1 0.121535 0.622287 0.123853
28.02 1 0.625819 0.631287 0.121406
28.02 1 0.377592 0.865001 0.132207
28.02 1 0.868962 0.884677 0.118679
28.02 1 0.252669 0.00457925 0.248323
28.02 1 0.742123 0.00103582 0.254374
28.02 1 -0.00868412 0.264767 0.244031
28.02 1 0.507314 0.246406 0.254905
28.02 1 0.252233 0.496278 0.25173
28.02 1 0.747944 0.508562 0.245294
28.02 1 -0.0015722 0.760832 0.249089
28.02 1 0.506847 0.742285 0.254038
28.02 1 0.378918 0.122669 0.374552
28.02 1 0.867589 0.129027 0.373661
28.02 1 0.127921 0.375102 0.37232
28.02 1 0.626513 0.38358 0.378366
28.02 1 0.379653 0.616459 0.379809
28.02 1 0.883379 0.629195 0.377747
28.02 1 0.130904 0.877855 0.366573
28.02 1 0.631774 0.86404 0.378702
28.02 1 0.00187587 0.00250046 0.489747
28.02 1 0.496872 -0.000637108 0.499532
28.02 1 0.249196 0.240943 0.496152
28.02 1 0.742514 0.250243 0.500098
28.02 1 0.0118443 0.503926 0.495255
28.02 1 0.504675 0.496919 0.50492
28.02 1 0.25279 0.755582 0.496615
28.02 1 0.754364 0.742912 0.510921
28.02 1 0.118665 0.128174 0.626459
28.02 1 0.618013 0.121479 0.624448
28.02 1 0.377665 0.369181 0.620606
28.02 1 0.867574 0.391184 0.614232
28.02 1 0.130181 0.630407 0.632001
28.02 1 0.619411 0.625244 0.63529
28.02 1 0.374417 0.874272 0.62358
28.02 1 0.870077 0.8761 0.620033
28.02 1 0.241548 -0.0033927 0.747665
28.02 1 0.73802 -0.00559048 0.745977
28.02 1 -0.0120295 0.252691 0.741987
28.02 1 0.493379 0.246229 0.750308
28.02 1 0.25712 0.496754 0.755322
28.02 1 0.74798 0.502473 0.754137
28.02 1 -0.00556504 0.754896 0.751377
28.02 1 0.49895 0.753853 0.755712
28.02 1 0.369252 0.122521 0.876885
28.02 1 0.870671 0.12303 0.873322
28.02 1 0.129698 0.366328 0.866583
28.02 1 0.627664 0.370746 0.873868
28.02 1 0.376198 0.616506 0.880125
28.02 1 0.876544 0.622735 0.87835
28.02 1 0.123321 0.872759 0.878113
28.02 1 0.620675 0.869789 0.875393
ITEM: TIMESTEP
40000
ITEM: NUMBER OF ATOMS
64
ITEM: BOX BOUNDS pp pp pp
1.8145365528372537e-03 1.0858185463447452e+01
1.8145365528372537e-03 1.0858185463447452e+01
1.8145365528372537e-03 1.0858185463447452e+01
ITEM: ATOMS mass type xs ys zs
28.02 1 -0.000116843 -0.00635979 0.00544827
28.02 1 0.502042 -0.00366617 -0.00512609
28.02 1 0.250944 0.249293 0.00596416
28.02 1 0.742151 0.252461 0.0117576
28.02 1 -0.00511512 0.497013 -0.00149939
28.02 1 0.502455 0.517691 -0.0149209
28.02 1 0.245045 0.751938 0.00126886
28.02 1 0.753031 0.749423 -0.00537287
28.02 1 0.124477 0.121901 0.127554
28.02 1 0.615164 0.120276 0.130548
28.02 1 0.371278 0.38875 0.117078
28.02 1 0.884463 0.363569 0.124737
28.02 1 0.114716 0.622879 0.122693
28.02 1 0.626478 0.622701 0.129669
28.02 1 0.367539 0.882011 0.122178
28.02 1 0.87643 0.866051 0.125653
28.02 1 0.244779 0.000873888 0.258152
28.02 1 0.75396 -0.00724158 0.246235
28.02 1 0.000762033 0.244111 0.251551
28.02 1 0.491233 0.254415 0.243989
28.02 1 0.242341 0.498781 0.245965
28.02 1 0.751244 0.488544 0.249137
28.02 1 -0.00570981 0.742685 0.255974
28.02 1 0.500295 0.754343 0.248807
28.02 1 0.374279 0.134376 0.371301
28.02 1 0.876625 0.119933 0.370436
28.02 1 0.12551 0.374752 0.376132
28.02 1 0.620295 0.367919 0.374537
28.02 1 0.374123 0.628474 0.366468
28.02 1 0.867542 0.614146 0.378618
28.02 1 0.127642 0.867085 0.371344
28.02 1 0.62856 0.878065 0.37153
28.02 1 -0.000170453 -0.000876318 0.502171
28.02 1 0.504196 0.0113403 0.497588
28.02 1 0.253174 0.246778 0.501555
28.02 1 0.759312 0.252861 0.499824
28.02 1 0.000519717 0.489121 0.510433
28.02 1 0.494551 0.499709 0.491853
28.02 1 0.260194 0.748227 0.502246
28.02 1 0.74911 0.752286 0.501556
28.02 1 0.118588 0.124025 0.623464
28.02 1 0.628874 0.13045 0.622901
28.02 1 0.380268 0.377244 0.62743
28.02 1 0.87666 0.375074 0.64292
28.02 1 0.123125 0.625798 0.623938
28.02 1 0.612909 0.623402 0.61911
28.02 1 0.378078 0.886182 0.615087
28.02 1 0.88106 0.871556 0.626826
28.02 1 0.252999 0.00308635 0.747465
28.02 1 0.757031 0.00385943 0.744638
28.02 1 0.00780433 0.246746 0.752166
28.02 1 0.499116 0.24584 0.757063
28.02 1 0.251026 0.498644 0.748945
28.02 1 0.744813 0.509067 0.752407
28.02 1 0.00356164 0.742654 0.754092
28.02 1 0.497676 0.76436 0.742354
28.02 1 0.379735 0.120931 0.88153
28.02 1 0.871248 0.130488 0.88518
28.02 1 0.134967 0.373026 0.877098
28.02 1 0.627848 0.371581 0.879275
28.02 1 0.373623 0.644617 0.874024
28.02 1 0.874583 0.621913 0.873644
28.02 1 0.124128 0.87521 0.875873
28.02 1 0.634932 0.877608 0.867539
ITEM: TIMESTEP
45000
ITEM: NUMBER OF ATOMS
64
ITEM: BOX BOUNDS pp pp pp
2.9634649195502405e-03 1.0857036535080743e+01
2.9634649195502405e-03 1.0857036535080743e+01
2.9634649195502405e-03 1.0857036535080743e+01
ITEM: ATOMS mass type xs ys zs
28.02 1 -0.00461236 0.00482473 -0.00270614
28.02 1 0.503586 -0.0129492 0.00281386
28.02 1 0.24744 0.23844 -0.0090185
28.02 1 0.748396 0.263738 -0.0025958
28.02 1 0.000935962 0.502635 -0.00625966
28.02 1 0.489865 0.50262 0.0107993
28.02 1 0.247489 0.758135 -0.0093648
28.02 1 0.756121 0.751275 0.00364264
28.02 1 0.12445 0.124885 0.127103
28.02 1 0.627232 0.12071 0.120953
28.02 1 0.370536 0.360106 0.127633
28.02 1 0.873681 0.381815 0.12197
28.02 1 0.131673 0.634334 0.114034
28.02 1 0.627682 0.627117 0.131059
28.02 1 0.377622 0.867488 0.131946
28.02 1 0.876119 0.882712 0.130733
28.02 1 0.248347 -0.00175061 0.249104
28.02 1 0.755285 0.0122403 0.248325
28.02 1 0.0171037 0.261013 0.242602
28.02 1 0.493558 0.240967 0.248508
28.02 1 0.25648 0.503847 0.250126
28.02 1 0.7511 0.504831 0.246323
28.02 1 0.00448578 0.754498 0.248295
28.02 1 0.503831 0.745336 0.268324
28.02 1 0.362452 0.12446 0.376122
28.02 1 0.879056 0.141149 0.36557
28.02 1 0.126333 0.377806 0.378143
28.02 1 0.627769 0.374916 0.366637
28.02 1 0.368943 0.619668 0.390232
28.02 1 0.875118 0.630467 0.368407
28.02 1 0.124001 0.879246 0.384614
28.02 1 0.621382 0.885931 0.382296
28.02 1 -0.000160168 0.0134782 0.496755
28.02 1 0.490364 -0.00114275 0.497374
28.02 1 0.245651 0.253983 0.507245
28.02 1 0.748504 0.251351 0.498065
28.02 1 0.00387875 0.502237 0.488694
28.02 1 0.503935 0.486031 0.503768
28.02 1 0.242262 0.747298 0.511915
28.02 1 0.746998 0.756068 0.504796
28.02 1 0.117184 0.130491 0.62788
28.02 1 0.630347 0.111128 0.622597
28.02 1 0.380427 0.370535 0.631832
28.02 1 0.879421 0.374953 0.618643
28.02 1 0.126079 0.620654 0.627786
28.02 1 0.627217 0.620306 0.618563
28.02 1 0.374871 0.86845 0.628263
28.02 1 0.878123 0.88041 0.622712
28.02 1 0.243149 -0.000966513 0.747
28.02 1 0.753058 -0.00471586 0.754521
28.02 1 -0.00205485 0.263195 0.754036
28.02 1 0.510021 0.234402 0.747671
28.02 1 0.255503 0.496564 0.752345
28.02 1 0.750277 0.494086 0.747079
28.02 1 -0.00676669 0.743777 0.745027
28.02 1 0.499126 0.738465 0.750066
28.02 1 0.376073 0.109964 0.86593
28.02 1 0.8794 0.124641 0.866387
28.02 1 0.12409 0.37917 0.877677
28.02 1 0.613253 0.378128 0.876202
28.02 1 0.369656 0.630043 0.88138
28.02 1 0.875436 0.622499 0.870164
28.02 1 0.119277 0.875108 0.870753
28.02 1 0.631942 0.8669 0.880504
ITEM: TIMESTEP
50000
ITEM: NUMBER OF ATOMS
64
ITEM: BOX BOUNDS pp pp pp
-1.3118759680076586e-02 1.0873118759680416e+01
-1.3118759680076586e-02 1.0873118759680416e+01
-1.3118759680076586e-02 1.0873118759680416e+01
ITEM: ATOMS mass type xs ys zs
28.02 1 -0.00813366 -0.00867574 9.87374e-06
28.02 1 0.499765 0.0126714 -0.00284184
28.02 1 0.247818 0.249476 0.00412303
28.02 1 0.746329 0.246723 0.000219454
28.02 1 -0.000280694 0.496031 0.00789909
28.02 1 0.497457 0.507782 -0.0114741
28.02 1 0.250731 0.754855 -0.00918886
28.02 1 0.743549 0.751823 0.0175808
28.02 1 0.120233 0.111333 0.120573
28.02 1 0.630978 0.13025 0.130776
28.02 1 0.38537 0.376973 0.122043
28.02 1 0.877697 0.371931 0.134591
28.02 1 0.141069 0.626058 0.123216
28.02 1 0.62543 0.621706 0.125116
28.02 1 0.37091 0.880153 0.116828
28.02 1 0.876458 0.867583 0.126471
28.02 1 0.260146 0.00283068 0.251753
28.02 1 0.751639 -0.00175332 0.253235
28.02 1 0.00520056 0.238877 0.245595
28.02 1 0.505959 0.251759 0.253051
28.02 1 0.255624 0.496616 0.24635
28.02 1 0.742143 0.49179 0.247399
28.02 1 -0.00214256 0.740891 0.255917
28.02 1 0.502189 0.748816 0.237208
28.02 1 0.381597 0.129195 0.378558
28.02 1 0.872302 0.117959 0.387388
28.02 1 0.118999 0.376983 0.370725
28.02 1 0.612524 0.377057 0.381353
28.02 1 0.383741 0.626723 0.370831
28.02 1 0.870355 0.607923 0.377232
28.02 1 0.123084 0.874923 0.376168
28.02 1 0.618994 0.87888 0.363892
28.02 1 -0.00484356 -0.00749602 0.510588
28.02 1 0.501951 -0.00103368 0.507081
28.02 1 0.259328 0.258356 0.491608
28.02 1 0.734673 0.248975 0.499092
28.02 1 -0.00646206 0.488743 0.512328
28.02 1 0.501961 0.509822 0.503315
28.02 1 0.251759 0.749689 0.49372
28.02 1 0.751022 0.747833 0.480398
28.02 1 0.132816 0.125936 0.625093
28.02 1 0.622913 0.131633 0.629827
28.02 1 0.372427 0.380891 0.623002
28.02 1 0.865907 0.364871 0.629439
28.02 1 0.130622 0.620963 0.620586
28.02 1 0.637274 0.635357 0.622588
28.02 1 0.371859 0.869966 0.624484
28.02 1 0.870903 0.861753 0.621942
28.02 1 0.250164 0.000912092 0.746765
28.02 1 0.748579 -0.00304297 0.749265
28.02 1 0.000699775 0.242453 0.751253
28.02 1 0.496629 0.269201 0.755937
28.02 1 0.251634 0.499496 0.751808
28.02 1 0.748069 0.513934 0.753795
28.02 1 -0.000898824 0.74622 0.752392
28.02 1 0.514669 0.754254 0.74491
28.02 1 0.37117 0.13091 0.869831
28.02 1 0.879187 0.127075 0.878017
28.02 1 0.122162 0.377395 0.873183
28.02 1 0.626357 0.385289 0.873965
28.02 1 0.376745 0.633699 0.860009
28.02 1 0.869551 0.630341 0.886088
28.02 1 0.118706 0.871442 0.87364
28.02 1 0.62473 0.878025 0.881454
ITEM: TIMESTEP
50017
ITEM: NUMBER OF ATOMS
64
ITEM: BOX BOUNDS pp pp pp
-1.3118759680076586e-02 1.0873118759680416e+01
-1.3118759680076586e-02 1.0873118759680416e+01
-1.3118759680076586e-02 1.0873118759680416e+01
ITEM: ATOMS mass type xs ys zs
28.02 1 1 1 2.12726e-07
28.02 1 0.5 2.03314e-07 1
28.02 1 0.25 0.25 9.92223e-08
28.02 1 0.75 0.25 -2.64961e-08
28.02 1 1 0.5 8.16266e-08
28.02 1 0.5 0.5 1
28.02 1 0.25 0.75 1
28.02 1 0.75 0.75 -2.65171e-07
28.02 1 0.125 0.125 0.125
28.02 1 0.625 0.125 0.125
28.02 1 0.375 0.375 0.125
28.02 1 0.875 0.375 0.125
28.02 1 0.125 0.625 0.125
28.02 1 0.625 0.625 0.125
28.02 1 0.375 0.875 0.125
28.02 1 0.875 0.875 0.125
28.02 1 0.25 -1.83315e-07 0.25
28.02 1 0.75 1 0.25
28.02 1 3.43572e-08 0.25 0.25
28.02 1 0.5 0.25 0.25
28.02 1 0.25 0.5 0.25
28.02 1 0.75 0.5 0.25
28.02 1 1 0.75 0.25
28.02 1 0.5 0.75 0.25
28.02 1 0.375 0.125 0.375
28.02 1 0.875 0.125 0.375
28.02 1 0.125 0.375 0.375
28.02 1 0.625 0.375 0.375
28.02 1 0.375 0.625 0.375
28.02 1 0.875001 0.625 0.375
28.02 1 0.125 0.875 0.375
28.02 1 0.625 0.875 0.375
28.02 1 1 1 0.500001
28.02 1 0.5 1 0.5
28.02 1 0.25 0.25 0.5
28.02 1 0.75 0.25 0.5
28.02 1 1 0.5 0.5
28.02 1 0.5 0.5 0.5
28.02 1 0.25 0.75 0.5
28.02 1 0.75 0.75 0.5
28.02 1 0.125 0.125 0.625
28.02 1 0.625 0.125 0.625
28.02 1 0.374999 0.375 0.625
28.02 1 0.875 0.375 0.625
28.02 1 0.125 0.625 0.625
28.02 1 0.625 0.625 0.625
28.02 1 0.375 0.875 0.625
28.02 1 0.875 0.875 0.625
28.02 1 0.25 1.75572e-07 0.75
28.02 1 0.75 1 0.75
28.02 1 3.27689e-07 0.25 0.75
28.02 1 0.5 0.25 0.75
28.02 1 0.25 0.5 0.75
28.02 1 0.75 0.5 0.75
28.02 1 1 0.75 0.75
28.02 1 0.5 0.75 0.75
28.02 1 0.375 0.125 0.875
28.02 1 0.875 0.125 0.875
28.02 1 0.125 0.375 0.875
28.02 1 0.625 0.375 0.875
28.02 1 0.375 0.625 0.875
28.02 1 0.875 0.625 0.875
28.02 1 0.125 0.875 0.875
28.02 1 0.625 0.875 0.875
